    -----------------------------------------------------------------------
          PSI4: An Open-Source Ab Initio Electronic Structure Package
                              PSI 4.0.0-beta1 Driver

    J. M. Turney, A. C. Simmonett, R. M. Parrish, E. G. Hohenstein,
    F. Evangelista, J. T. Fermann, B. J. Mintz, L. A. Burns, J. J. Wilke,
    M. L. Abrams, N. J. Russ, M. L. Leininger, C. L. Janssen, E. T. Seidl,
    W. D. Allen, H. F. Schaefer, R. A. King, E. F. Valeev, C. D. Sherrill,
    and T. D. Crawford, WIREs Comput. Mol. Sci., (2011) (doi: 10.1002/wcms.93)

                         Additional Contributions by
    A. E. DePrince, M. Saitow, U. Bozkaya, A. Yu. Sokolov
    -----------------------------------------------------------------------


    Using LocalCommunicator (Number of processes = 1)

    Memory level set to 256.000 MB

  ==> Input File <==

--------------------------------------------------------------------------
#! Test of SAD/Cast-up (mainly not dying due to file weirdness)

nucenergy =   8.80146552997207 #TEST
refenergy = -76.02141844515491 #TEST

memory 250 mb

molecule h2o {
0 1
O
H 1 1.0
H 1 1.0 2 104.5
}

set globals {
basis cc-pvdz
reference rhf
guess sad
}

thisenergy = energy('scf',cast_up='3-21G')

compare_values(nucenergy, h2o.nuclear_repulsion_energy(), 9, "Nuclear repulsion energy") #TEST
compare_values(refenergy, thisenergy, 9, "Reference energy")                            #TEST
--------------------------------------------------------------------------

  Memory set to 250.000 MiB by Python script.

  //>>>>>>>>>>>>>>>>>>>>>>>>>>>>>>>>>>>//
  //       Guess SCF, 3-21G Basis      //
  //<<<<<<<<<<<<<<<<<<<<<<<<<<<<<<<<<<<//


*** tstart() called on QuickSilver.local
*** at Mon Jan 23 14:38:50 2012


         ---------------------------------------------------------
                                   SCF
            by Justin Turney, Rob Parrish, and Andy Simmonett
                              RHF Reference
                        1 Threads,    250 MiB Core
         ---------------------------------------------------------

  ==> Geometry <==

    Molecular point group: c2v

    Geometry (in Angstrom), charge = 0, multiplicity = 1:

       Center              X                  Y                   Z       
    ------------   -----------------  -----------------  -----------------
           O         -0.000000000000     0.000000000000    -0.068516219310
           H          0.000000000000    -0.790689573744     0.543701060724
           H         -0.000000000000     0.790689573744     0.543701060724

    Number of unique atoms: 2

    Atoms equivalency:
       unique atom 0: 0 
       unique atom 1: 1 2 

  Running in c2v symmetry.

  Nuclear repulsion =    8.801465529972067

  Charge       = 0
  Multiplicity = 1
  Electrons    = 10
  Nalpha       = 5
  Nbeta        = 5

  ==> Algorithm <==

  SCF Algorithm Type is PK.
  DIIS enabled.
  MOM disabled.
  Fractional occupation disabled.
  Guess Type is SAD.
  Energy threshold   = 1.00e-08
  Density threshold  = 1.00e-08
  Integral threshold = 0.00e+00

  ==> Primary Basis: 3-21G <==

  Basis Set
    Number of shells: 9
    Number of basis function: 13
    Number of Cartesian functions: 13
    Spherical Harmonics?: true
    Max angular momentum: 1

  ==> Pre-Iterations <==

  Minimum eigenvalue in the overlap matrix is 1.1659538849E-01.
  Using Symmetric Orthogonalization.
  SCF Guess: Superposition of Atomic Densities via on-the-fly atomic UHF.

  Initial RHF energy:   -51.62434246857734

   -------------------------------------------------------
    Irrep   Nso     Nmo     Nalpha   Nbeta   Ndocc  Nsocc
   -------------------------------------------------------
     A1         7       7       6       6       6       0
     A2         0       0       0       0       0       0
     B1         2       2       2       2       2       0
     B2         4       4       3       3       3       0
   -------------------------------------------------------
    Total      13      13       5       5       5       0
   -------------------------------------------------------

  ==> Integral Setup <==

 MINTS: Wrapper to libmints.
   by Justin Turney

   Calculation information:
      Number of atoms:                   3
      Number of AO shells:               9
      Number of SO shells:               7
      Number of primitives:             15
      Number of atomic orbitals:        13
      Number of basis functions:        13

      Number of irreps:                  4
      Number of functions per irrep: [   7    0    2    4 ]

      Overlap, kinetic, potential, dipole, and quadrupole integrals
        stored in file 35.

      Computing two-electron integrals...done
      Computed 1270 non-zero two-electron integrals.
        Stored in file 33.

  ==> Iterations <==

                        Total Energy        Delta E     Density RMS

   @RHF iter   0:   -75.53492813550054   -2.39106e+01   0.00000e+00 
   @RHF iter   1:   -75.54556649974717   -1.06384e-02   7.91532e-02 
   @RHF iter   2:   -75.57706643941729   -3.14999e-02   2.22644e-02 DIIS
   @RHF iter   3:   -75.58326374428759   -6.19730e-03   5.88647e-03 DIIS
   @RHF iter   4:   -75.58392215888180   -6.58415e-04   3.62186e-03 DIIS
   @RHF iter   5:   -75.58398055992190   -5.84010e-05   1.29329e-03 DIIS
   @RHF iter   6:   -75.58398223149112   -1.67157e-06   2.32397e-04 DIIS
   @RHF iter   7:   -75.58398227483767   -4.33465e-08   3.44073e-05 DIIS
   @RHF iter   8:   -75.58398227491783   -8.01634e-11   1.13909e-06 DIIS
   @RHF iter   9:   -75.58398227491936   -1.53477e-12   2.55313e-07 DIIS
   @RHF iter  10:   -75.58398227491944   -7.10543e-14   2.56564e-08 DIIS

  ==> Post-Iterations <==

	Orbital Energies (a.u.)
	-----------------------

	Doubly Occupied:                                                      

	   1A1   -20.437210     2A1    -1.309091     1B2    -0.663193  
	   3A1    -0.531720     1B1    -0.478006  

	Virtual:                                                              

	   4A1     0.250064     2B2     0.346693     3B2     1.174069  
	   5A1     1.255882     2B1     1.781533     6A1     1.878530  
	   4B2     2.018899     7A1     3.087307  

	Final Occupation by Irrep:
	         A1    A2    B1    B2 
	DOCC [     3,    0,    1,    1 ]

  Energy converged.

  @RHF Final Energy:   -75.58398227491944

  ==> Properties <==
  Nuclear Dipole Moment: (a.u.)
     X:    -0.0000      Y:     0.0000      Z:     1.0191

  Electronic Dipole Moment: (a.u.)
     X:     0.0000      Y:     0.0000      Z:    -0.0602

  Dipole Moment: (a.u.)
     X:    -0.0000      Y:     0.0000      Z:     0.9589     Total:     0.9589

  Dipole Moment: (Debye)
     X:    -0.0000      Y:     0.0000      Z:     2.4373     Total:     2.4373


  Saving occupied orbitals to File 180.

*** tstop() called on QuickSilver.local at Mon Jan 23 14:38:50 2012
Module time:
	user time   =       0.08 seconds =       0.00 minutes
	system time =       0.01 seconds =       0.00 minutes
	total time  =          0 seconds =       0.00 minutes
Total time:
	user time   =       0.08 seconds =       0.00 minutes
	system time =       0.01 seconds =       0.00 minutes
	total time  =          0 seconds =       0.00 minutes

  //>>>>>>>>>>>>>>>>>>>>>>>>>>>>>>>>>>>//
  //                SCF                //
  //<<<<<<<<<<<<<<<<<<<<<<<<<<<<<<<<<<<//


*** tstart() called on QuickSilver.local
*** at Mon Jan 23 14:38:50 2012


         ---------------------------------------------------------
                                   SCF
            by Justin Turney, Rob Parrish, and Andy Simmonett
                              RHF Reference
                        1 Threads,    250 MiB Core
         ---------------------------------------------------------

  ==> Geometry <==

    Molecular point group: c2v

    Geometry (in Angstrom), charge = 0, multiplicity = 1:

       Center              X                  Y                   Z       
    ------------   -----------------  -----------------  -----------------
           O         -0.000000000000     0.000000000000    -0.068516219310
           H          0.000000000000    -0.790689573744     0.543701060724
           H         -0.000000000000     0.790689573744     0.543701060724

    Number of unique atoms: 2

    Atoms equivalency:
       unique atom 0: 0 
       unique atom 1: 1 2 

  Running in c2v symmetry.

  Nuclear repulsion =    8.801465529972067

  Charge       = 0
  Multiplicity = 1
  Electrons    = 10
  Nalpha       = 5
  Nbeta        = 5

  ==> Algorithm <==

  SCF Algorithm Type is PK.
  DIIS enabled.
  MOM disabled.
  Fractional occupation disabled.
  Guess Type is READ.
  Energy threshold   = 1.00e-08
  Density threshold  = 1.00e-08
  Integral threshold = 0.00e+00

  ==> Primary Basis: CC-PVDZ <==

  Basis Set
    Number of shells: 12
    Number of basis function: 24
    Number of Cartesian functions: 25
    Spherical Harmonics?: true
    Max angular momentum: 2

  ==> Pre-Iterations <==

  Minimum eigenvalue in the overlap matrix is 3.7382439507E-02.
  Using Symmetric Orthogonalization.
  SCF Guess: Projection.

  Computing dual basis set projection from 3-21G to CC-PVDZ.
  Initial RHF energy:   -75.58398227491944

   -------------------------------------------------------
    Irrep   Nso     Nmo     Nalpha   Nbeta   Ndocc  Nsocc
   -------------------------------------------------------
     A1        11      11       3       3       3       0
     A2         2       2       0       0       0       0
     B1         4       4       1       1       1       0
     B2         7       7       1       1       1       0
   -------------------------------------------------------
    Total      24      24       5       5       5       0
   -------------------------------------------------------

  ==> Integral Setup <==

 MINTS: Wrapper to libmints.
   by Justin Turney

   Calculation information:
      Number of atoms:                   3
      Number of AO shells:              12
      Number of SO shells:               9
      Number of primitives:             32
      Number of atomic orbitals:        25
      Number of basis functions:        24

      Number of irreps:                  4
      Number of functions per irrep: [  11    2    4    7 ]

      Overlap, kinetic, potential, dipole, and quadrupole integrals
        stored in file 35.

      Computing two-electron integrals...done
      Computed 11412 non-zero two-electron integrals.
        Stored in file 33.

  ==> Iterations <==

                        Total Energy        Delta E     Density RMS

   @RHF iter   0:   -75.97648979224552   -3.92508e-01   0.00000e+00 
   @RHF iter   1:   -76.01990621973312   -4.34164e-02   1.26902e-02 
   @RHF iter   2:   -76.02125650245819   -1.35028e-03   2.32178e-03 DIIS
   @RHF iter   3:   -76.02139062898233   -1.34127e-04   6.66510e-04 DIIS
   @RHF iter   4:   -76.02141563652293   -2.50075e-05   2.92284e-04 DIIS
   @RHF iter   5:   -76.02141838087456   -2.74435e-06   1.07675e-04 DIIS
   @RHF iter   6:   -76.02141844483185   -6.39573e-08   2.33389e-05 DIIS
   @RHF iter   7:   -76.02141844512221   -2.90356e-10   1.40441e-06 DIIS
   @RHF iter   8:   -76.02141844515374   -3.15339e-11   4.68970e-07 DIIS
   @RHF iter   9:   -76.02141844515491   -1.16529e-12   1.11514e-07 DIIS

  ==> Post-Iterations <==

	Orbital Energies (a.u.)
	-----------------------

	Doubly Occupied:                                                      

	   1A1   -20.557846     2A1    -1.316181     1B2    -0.677073  
	   3A1    -0.558726     1B1    -0.490383  

	Virtual:                                                              

	   4A1     0.178011     2B2     0.249490     3B2     0.760274  
	   5A1     0.816118     6A1     1.166182     2B1     1.198611  
	   4B2     1.256467     7A1     1.452518     1A2     1.466082  
	   3B1     1.667951     8A1     1.877148     5B2     1.889827  
	   6B2     2.354901     9A1     2.388286     4B1     3.248786  
	   2A2     3.297834    10A1     3.453879    11A1     3.821364  
	   7B2     4.099041  

	Final Occupation by Irrep:
	         A1    A2    B1    B2 
	DOCC [     3,    0,    1,    1 ]

  Energy converged.

  @RHF Final Energy:   -76.02141844515491

  ==> Properties <==
  Nuclear Dipole Moment: (a.u.)
     X:     0.0000      Y:     0.0000      Z:     1.0191

  Electronic Dipole Moment: (a.u.)
     X:     0.0000      Y:     0.0000      Z:    -0.1947

  Dipole Moment: (a.u.)
     X:     0.0000      Y:     0.0000      Z:     0.8244     Total:     0.8244

  Dipole Moment: (Debye)
     X:     0.0000      Y:     0.0000      Z:     2.0955     Total:     2.0955


  Saving occupied orbitals to File 180.

*** tstop() called on QuickSilver.local at Mon Jan 23 14:38:50 2012
Module time:
	user time   =       0.08 seconds =       0.00 minutes
	system time =       0.01 seconds =       0.00 minutes
	total time  =          0 seconds =       0.00 minutes
Total time:
	user time   =       0.16 seconds =       0.00 minutes
	system time =       0.02 seconds =       0.00 minutes
	total time  =          0 seconds =       0.00 minutes

*** PSI4 exiting successfully. Buy a developer a beer!
