
    -----------------------------------------------------------------------
          Psi4: An Open-Source Ab Initio Electronic Structure Package
                               Psi4 1.1rc3.dev5 

                         Git: Rev {master} 3fbd859 


    R. M. Parrish, L. A. Burns, D. G. A. Smith, A. C. Simmonett,
    A. E. DePrince III, E. G. Hohenstein, U. Bozkaya, A. Yu. Sokolov,
    R. Di Remigio, R. M. Richard, J. F. Gonthier, A. M. James,
    H. R. McAlexander, A. Kumar, M. Saitow, X. Wang, B. P. Pritchard,
    P. Verma, H. F. Schaefer III, K. Patkowski, R. A. King, E. F. Valeev,
    F. A. Evangelista, J. M. Turney, T. D. Crawford, and C. D. Sherrill,
    J. Chem. Theory Comput. in press (2017).
    (doi: 10.1021/acs.jctc.7b00174)

    -----------------------------------------------------------------------


    Psi4 started on: Monday, 15 May 2017 03:34PM

    Process ID:  12894
    PSIDATADIR: /home/psilocaluser/gits/hrw-direct/objdir4/stage/usr/local/psi4/share/psi4
    Memory:     500.0 MiB
    Threads:    1
    
  ==> Input File <==

--------------------------------------------------------------------------
#! RHF-EOM-CC2/cc-pVDZ lowest two states of each symmetry of H2O.

molecule h2o {
  0 1
  H
  O 1 0.9
  H 2 0.9 1 104.0
}

set {
  basis "cc-pVDZ"
  roots_per_irrep [2, 2, 2, 2]
}

energy('eom-cc2')

scf_0   =   -76.02170971655195                                                        #TEST
cc2_0   =   -76.22253325763003                                                        #TEST
eomcc_0 = [ -75.809233678819, -75.534141615619, -75.826553933384, -75.381447128586,   #TEST
            -75.904202214316, -75.295956806957, -75.729129680049, -75.642857468928 ]  #TEST

compare_values(scf_0, get_variable("SCF TOTAL ENERGY"), 6, "SCF energy") #TEST
compare_values(cc2_0, get_variable("CC2 TOTAL ENERGY"), 6, "CC2 energy") #TEST

for root in range(1,9):                                  #TEST
    ref = eomcc_0[root-1]                                #TEST
    val = get_variable("CC ROOT %d TOTAL ENERGY" % root) #TEST
    compare_values(ref, val, 6, "EOM-CC2 root %d" %root) #TEST
--------------------------------------------------------------------------

*** tstart() called on psinet
*** at Mon May 15 15:34:42 2017

   => Loading Basis Set <=

    Name: CC-PVDZ
    Role: ORBITAL
    Keyword: BASIS
    atoms 1, 3 entry H          line    20 file /home/psilocaluser/gits/hrw-direct/objdir4/stage/usr/local/psi4/share/psi4/basis/cc-pvdz.gbs 
    atoms 2    entry O          line   190 file /home/psilocaluser/gits/hrw-direct/objdir4/stage/usr/local/psi4/share/psi4/basis/cc-pvdz.gbs 


         ---------------------------------------------------------
                                   SCF
            by Justin Turney, Rob Parrish, and Andy Simmonett
                              RHF Reference
                        1 Threads,    500 MiB Core
         ---------------------------------------------------------

  ==> Geometry <==

    Molecular point group: c2v
    Full point group: C2v

    Geometry (in Angstrom), charge = 0, multiplicity = 1:

       Center              X                  Y                   Z               Mass       
    ------------   -----------------  -----------------  -----------------  -----------------
           H          0.000000000000     0.709209678246    -0.492083819402     1.007825032070
           O          0.000000000000     0.000000000000     0.062011508391    15.994914619560
           H          0.000000000000    -0.709209678246    -0.492083819402     1.007825032070

  Running in c2v symmetry.

  Rotational constants: A =     30.67311  B =     16.62769  C =     10.78255 [cm^-1]
  Rotational constants: A = 919556.64332  B = 498485.75497  C = 323252.59678 [MHz]
  Nuclear repulsion =    9.780670106434442

  Charge       = 0
  Multiplicity = 1
  Electrons    = 10
  Nalpha       = 5
  Nbeta        = 5

  ==> Algorithm <==

  SCF Algorithm Type is PK.
  DIIS enabled.
  MOM disabled.
  Fractional occupation disabled.
  Guess Type is SAD.
  Energy threshold   = 1.00e-08
  Density threshold  = 1.00e-08
  Integral threshold = 0.00e+00

  ==> Primary Basis <==

  Basis Set: CC-PVDZ
    Blend: CC-PVDZ
    Number of shells: 12
    Number of basis function: 24
    Number of Cartesian functions: 25
    Spherical Harmonics?: true
    Max angular momentum: 2

  ==> Pre-Iterations <==

   -------------------------------------------------------
    Irrep   Nso     Nmo     Nalpha   Nbeta   Ndocc  Nsocc
   -------------------------------------------------------
     A1        11      11       0       0       0       0
     A2         2       2       0       0       0       0
     B1         4       4       0       0       0       0
     B2         7       7       0       0       0       0
   -------------------------------------------------------
    Total      24      24       5       5       5       0
   -------------------------------------------------------

  ==> Integral Setup <==

  Using in-core PK algorithm.
   Calculation information:
      Number of atoms:                   3
      Number of AO shells:              12
      Number of primitives:             32
      Number of atomic orbitals:        25
      Number of basis functions:        24

      Integral cutoff                 1.00e-12
      Number of threads:                 1

  Performing in-core PK
  Using 90300 doubles for integral storage.
  We computed 3081 shell quartets total.
  Whereas there are 3081 unique shell quartets.
  ==> DiskJK: Disk-Based J/K Matrices <==

    J tasked:                  Yes
    K tasked:                  Yes
    wK tasked:                  No
    Memory (MB):               375
    Schwarz Cutoff:          1E-12

    OpenMP threads:              1
  Minimum eigenvalue in the overlap matrix is 3.0308209013E-02.
  Using Symmetric Orthogonalization.

  SCF Guess: Superposition of Atomic Densities via on-the-fly atomic UHF.

  ==> Iterations <==

                        Total Energy        Delta E     RMS |[F,P]|

   @RHF iter   0:   -76.00036552232697   -7.60004e+01   1.37083e-01 
   @RHF iter   1:   -75.99396440566989    6.40112e-03   1.95487e-02 
   @RHF iter   2:   -76.01606760481933   -2.21032e-02   9.21675e-03 DIIS
   @RHF iter   3:   -76.02154111671629   -5.47351e-03   1.16914e-03 DIIS
   @RHF iter   4:   -76.02169606567804   -1.54949e-04   2.55438e-04 DIIS
   @RHF iter   5:   -76.02170884188914   -1.27762e-05   5.64894e-05 DIIS
   @RHF iter   6:   -76.02170970347746   -8.61588e-07   1.09505e-05 DIIS
   @RHF iter   7:   -76.02170973305257   -2.95751e-08   7.96894e-07 DIIS
   @RHF iter   8:   -76.02170973316721   -1.14639e-10   8.72934e-08 DIIS
   @RHF iter   9:   -76.02170973316871   -1.49214e-12   1.39744e-08 DIIS
   @RHF iter  10:   -76.02170973316869    1.42109e-14   1.76714e-09 DIIS

  ==> Post-Iterations <==

    Orbital Energies (a.u.)
    -----------------------

    Doubly Occupied:                                                      

       1A1   -20.540311     2A1    -1.368599     1B2    -0.730278  
       3A1    -0.578351     1B1    -0.498029  

    Virtual:                                                              

       4A1     0.194413     2B2     0.263875     3B2     0.831607  
       5A1     0.914881     6A1     1.159565     2B1     1.197741  
       4B2     1.251838     7A1     1.433606     1A2     1.494790  
       3B1     1.686267     8A1     1.856647     5B2     2.005229  
       6B2     2.592530     9A1     2.645351     4B1     3.340977  
       2A2     3.395191    10A1     3.588460    11A1     3.929927  
       7B2     4.217613  

    Final Occupation by Irrep:
             A1    A2    B1    B2 
    DOCC [     3,    0,    1,    1 ]

  Energy converged.

  @RHF Final Energy:   -76.02170973316869

   => Energetics <=

    Nuclear Repulsion Energy =              9.7806701064344423
    One-Electron Energy =                -124.1736229796358373
    Two-Electron Energy =                  38.3712431400327105
    DFT Exchange-Correlation Energy =       0.0000000000000000
    Empirical Dispersion Energy =           0.0000000000000000
    PCM Polarization Energy =               0.0000000000000000
    EFP Energy =                            0.0000000000000000
    Total Energy =                        -76.0217097331686773



Properties will be evaluated at   0.000000,   0.000000,   0.000000 Bohr

Properties computed using the SCF density matrix

  Nuclear Dipole Moment: (a.u.)
     X:     0.0000      Y:     0.0000      Z:    -0.9223

  Electronic Dipole Moment: (a.u.)
     X:     0.0000      Y:     0.0000      Z:     0.1331

  Dipole Moment: (a.u.)
     X:     0.0000      Y:     0.0000      Z:    -0.7892     Total:     0.7892

  Dipole Moment: (Debye)
     X:     0.0000      Y:     0.0000      Z:    -2.0059     Total:     2.0059


*** tstop() called on psinet at Mon May 15 15:34:43 2017
Module time:
	user time   =       0.37 seconds =       0.01 minutes
	system time =       0.01 seconds =       0.00 minutes
	total time  =          1 seconds =       0.02 minutes
Total time:
	user time   =       0.37 seconds =       0.01 minutes
	system time =       0.01 seconds =       0.00 minutes
	total time  =          1 seconds =       0.02 minutes
 MINTS: Wrapper to libmints.
   by Justin Turney

   Calculation information:
      Number of threads:                 1
      Number of atoms:                   3
      Number of AO shells:              12
      Number of SO shells:               9
      Number of primitives:             32
      Number of atomic orbitals:        25
      Number of basis functions:        24

      Number of irreps:                  4
      Integral cutoff                 0.00e+00
      Number of functions per irrep: [  11    2    4    7 ]

 OEINTS: Overlap, kinetic, potential, dipole, and quadrupole integrals
         stored in file 35.

      Computing two-electron integrals...done
      Computed 11649 non-zero two-electron integrals.
        Stored in file 33.


*** tstart() called on psinet
*** at Mon May 15 15:34:43 2017


	Wfn Parameters:
	--------------------
	Wavefunction         = CC2
	Number of irreps     = 4
	Number of MOs        = 24
	Number of active MOs = 24
	AO-Basis             = NONE
	Semicanonical        = false
	Reference            = RHF
	Print Level          = 1

	IRREP	# MOs	# FZDC	# DOCC	# SOCC	# VIRT	# FZVR
	-----	-----	------	------	------	------	------
	 A1	   11	    0	    3	    0	    8	    0
	 A2	   2	    0	    0	    0	    2	    0
	 B1	   4	    0	    1	    0	    3	    0
	 B2	   7	    0	    1	    0	    6	    0
	Transforming integrals...
	IWL integrals will be deleted.
	(OO|OO)...
	Presorting SO-basis two-electron integrals.
	Sorting File: SO Ints (nn|nn) nbuckets = 1
	Transforming the one-electron integrals and constructing Fock matrices
	Starting first half-transformation.
	Sorting half-transformed integrals.
	First half integral transformation complete.
	Starting second half-transformation.
	Two-electron integral transformation complete.
	(OO|OV)...
	Starting second half-transformation.
	Two-electron integral transformation complete.
	(OO|VV)...
	Starting second half-transformation.
	Two-electron integral transformation complete.
	(OV|OO)...
	Starting first half-transformation.
	Sorting half-transformed integrals.
	First half integral transformation complete.
	Starting second half-transformation.
	Two-electron integral transformation complete.
	(OV|OV)...
	Starting second half-transformation.
	Two-electron integral transformation complete.
	(OV|VV)...
	Starting second half-transformation.
	Two-electron integral transformation complete.
	(VV|OO)...
	Starting first half-transformation.
	Sorting half-transformed integrals.
	First half integral transformation complete.
	Starting second half-transformation.
	Two-electron integral transformation complete.
	(VV|OV)...
	Starting second half-transformation.
	Two-electron integral transformation complete.
	(VV|VV)...
	Starting second half-transformation.
	Two-electron integral transformation complete.
	Frozen core energy     =      0.00000000000000

	Size of irrep 0 of <ab|cd> integrals:      0.013 (MW) /      0.102 (MB)
	Size of irrep 1 of <ab|cd> integrals:      0.005 (MW) /      0.037 (MB)
	Size of irrep 2 of <ab|cd> integrals:      0.005 (MW) /      0.041 (MB)
	Size of irrep 3 of <ab|cd> integrals:      0.012 (MW) /      0.093 (MB)
	Total:                                     0.034 (MW) /      0.274 (MB)

	Size of irrep 0 of <ia|bc> integrals:      0.004 (MW) /      0.030 (MB)
	Size of irrep 1 of <ia|bc> integrals:      0.001 (MW) /      0.008 (MB)
	Size of irrep 2 of <ia|bc> integrals:      0.001 (MW) /      0.011 (MB)
	Size of irrep 3 of <ia|bc> integrals:      0.003 (MW) /      0.024 (MB)
	Total:                                     0.009 (MW) /      0.073 (MB)

	Size of irrep 0 of tijab amplitudes:       0.001 (MW) /      0.010 (MB)
	Size of irrep 1 of tijab amplitudes:       0.000 (MW) /      0.001 (MB)
	Size of irrep 2 of tijab amplitudes:       0.000 (MW) /      0.003 (MB)
	Size of irrep 3 of tijab amplitudes:       0.001 (MW) /      0.005 (MB)
	Total:                                     0.002 (MW) /      0.020 (MB)

	Nuclear Rep. energy          =      9.78067010643444
	SCF energy                   =    -76.02170973316869
	One-electron energy          =   -124.17362294055454
	Two-electron energy          =     38.37124310095140
	Reference energy             =    -76.02170973316869

*** tstop() called on psinet at Mon May 15 15:34:43 2017
Module time:
	user time   =       0.03 seconds =       0.00 minutes
	system time =       0.04 seconds =       0.00 minutes
	total time  =          0 seconds =       0.00 minutes
Total time:
	user time   =       0.43 seconds =       0.01 minutes
	system time =       0.06 seconds =       0.00 minutes
	total time  =          1 seconds =       0.02 minutes

*** tstart() called on psinet
*** at Mon May 15 15:34:43 2017

            **************************
            *                        *
            *        CCENERGY        *
            *                        *
            **************************

    Nuclear Rep. energy (wfn)     =    9.780670106434442
    SCF energy          (wfn)     =  -76.021709733168692
    Reference energy    (file100) =  -76.021709733168692

    Input parameters:
    -----------------
    Wave function   =     CC2
    Reference wfn   =     RHF
    Brueckner       =     No
    Memory (Mbytes) =     524.3
    Maxiter         =     50
    R_Convergence   =     1.0e-07
    E_Convergence   =     1.0e-06
    Restart         =     Yes
    DIIS            =     Yes
    AO Basis        =     NONE
    ABCD            =     NEW
    Cache Level     =     2
    Cache Type      =     LOW
    Print Level     =     1
    Num. of threads =     1
    # Amps to Print =     10
    Print MP2 Amps? =     No
    Analyze T2 Amps =     No
    Print Pair Ener =     No
    Local CC        =     No
    SCS-MP2         =     False
    SCSN-MP2        =     False
    SCS-CCSD        =     False

MP2 correlation energy -0.2001371966492295
                Solving CC Amplitude Equations
                ------------------------------
  Iter             Energy              RMS        T1Diag      D1Diag    New D1Diag    D2Diag
  ----     ---------------------    ---------   ----------  ----------  ----------   --------
     0        -0.200137196649229    0.000e+00    0.000000    0.000000    0.000000    0.104241
     1        -0.200129980659726    1.132e-02    0.003581    0.007890    0.007890    0.104241
     2        -0.200769725482735    2.835e-03    0.004279    0.009388    0.009388    0.104993
     3        -0.200833650837341    9.064e-04    0.004575    0.009962    0.009962    0.105066
     4        -0.200822329134536    2.564e-04    0.004611    0.009977    0.009977    0.105061
     5        -0.200823086741689    8.748e-05    0.004628    0.009980    0.009980    0.105061
     6        -0.200823556771038    1.593e-05    0.004628    0.009972    0.009972    0.105062
     7        -0.200823544383077    2.987e-06    0.004629    0.009971    0.009971    0.105062
     8        -0.200823544206318    6.376e-07    0.004628    0.009971    0.009971    0.105061
     9        -0.200823545437442    1.052e-07    0.004628    0.009971    0.009971    0.105061
    10        -0.200823545766196    2.014e-08    0.004628    0.009971    0.009971    0.105061

    Iterations converged.


    Largest TIA Amplitudes:
              4  13         0.0066725211
              4  17        -0.0065339313
              2   0         0.0059782751
              2   5        -0.0043114707
              1   0         0.0036088625
              4  15         0.0034033835
              1   2         0.0033053491
              3  11         0.0030153675
              3  10        -0.0028450472
              2   3         0.0026848386

    Largest TIjAb Amplitudes:
      3   3  10  10        -0.0463827520
      2   2   2   2        -0.0315831481
      4   4  14  14        -0.0290398866
      2   3   2  10        -0.0284154741
      3   2  10   2        -0.0284154741
      3   4  10  15        -0.0234083882
      4   3  15  10        -0.0234083882
      4   4  13  13        -0.0228449330
      4   4   1   1        -0.0222532990
      2   2  14  14        -0.0219525172

    SCF energy       (wfn)                    =  -76.021709733168692
    Reference energy (file100)                =  -76.021709733168692

    Opposite-spin MP2 correlation energy      =   -0.149220599289343
    Same-spin MP2 correlation energy          =   -0.050916597359887
    MP2 correlation energy                    =   -0.200137196649229
      * MP2 total energy                      =  -76.221846929817914
    CC2 correlation energy                    =   -0.200823545766196
      * CC2 total energy                      =  -76.222533278934890


*** tstop() called on psinet at Mon May 15 15:34:43 2017
Module time:
	user time   =       0.06 seconds =       0.00 minutes
	system time =       0.16 seconds =       0.00 minutes
	total time  =          0 seconds =       0.00 minutes
Total time:
	user time   =       0.49 seconds =       0.01 minutes
	system time =       0.22 seconds =       0.00 minutes
	total time  =          1 seconds =       0.02 minutes

*** tstart() called on psinet
*** at Mon May 15 15:34:43 2017


			**************************
			*                        *
			*         CCHBAR         *
			*                        *
			**************************


*** tstop() called on psinet at Mon May 15 15:34:43 2017
Module time:
	user time   =       0.01 seconds =       0.00 minutes
	system time =       0.01 seconds =       0.00 minutes
	total time  =          0 seconds =       0.00 minutes
Total time:
	user time   =       0.50 seconds =       0.01 minutes
	system time =       0.23 seconds =       0.00 minutes
	total time  =          1 seconds =       0.02 minutes

*** tstart() called on psinet
*** at Mon May 15 15:34:43 2017


	**********************************************************
	*  CCEOM: An Equation of Motion Coupled Cluster Program  *
	**********************************************************

	Nuclear Rep. energy (wfn)     =    9.780670106434442
	SCF energy          (wfn)     =  -76.021709733168692
	Reference energy    (file100) =  -76.021709733168692
	CC2 energy          (file100) =   -0.200823545766196

	Input parameters:
	-----------------
	Reference wfn   =     RHF
	Reference EOM wfn=     RHF
	Memory (Mbytes) =  524.3
	ABCD            =     NEW
	Cache Level     =    2
	Cache Type      =     LRU
	Num. of threads =     1
	Local CC        =     No


	CCEOM parameters:
	-----------------
	States sought per irrep     = A1 2, A2 2, B1 2, B2 2,
	Max. number of iterations   =    80
	Vectors stored per root     =    12
	Print HbarSS iterations?    =     0
	Excitation range for HBarSS =     2
	Eigenvalue tolerance        = 1.0e-06
	Eigenvalue toleranceSS      = 1.0e-06
	Residual vector tolerance   = 1.0e-06
	Residual vector toleranceSS = 1.0e-06
	Complex tolerance           = 1.0e-12
	Root for properties         =     2
	Sym of state for properties =     B2
	Guess vectors taken from    = SINGLES
	Restart EOM CC3             = NO
	Collapse with last vector   = YES


Symmetry of ground state: A1
Symmetry of excited state: A1
Symmetry of right eigenvector: A1
Seeking states with multiplicity of 1
Obtaining initial guess from singles-singles block of Hbar...Done.

Iter=1    L=2     Root    EOM Energy     Delta E   Res. Norm    Conv?
                     1   0.5222774641   5.22e-01    5.48e-01      N
                     2   0.7780395032   7.78e-01    4.97e-01      N
Iter=2    L=4     Root    EOM Energy     Delta E   Res. Norm    Conv?
                     1   0.4143079529  -1.08e-01    3.09e-02      N
                     2   0.6889967113  -8.90e-02    2.12e-02      N
Iter=3    L=6     Root    EOM Energy     Delta E   Res. Norm    Conv?
                     1   0.4134064971  -9.01e-04    1.70e-02      N
                     2   0.6884605140  -5.36e-04    1.38e-02      N
Iter=4    L=8     Root    EOM Energy     Delta E   Res. Norm    Conv?
                     1   0.4133008697  -1.06e-04    2.23e-03      N
                     2   0.6883932919  -6.72e-05    2.40e-03      N
Iter=5    L=10    Root    EOM Energy     Delta E   Res. Norm    Conv?
                     1   0.4132998725  -9.97e-07    4.96e-04      N
                     2   0.6883913000  -1.99e-06    7.65e-04      N
Iter=6    L=12    Root    EOM Energy     Delta E   Res. Norm    Conv?
                     1   0.4132995719  -3.01e-07    6.78e-05      N
                     2   0.6883917021   4.02e-07    1.78e-04      N
Iter=7    L=14    Root    EOM Energy     Delta E   Res. Norm    Conv?
                     1   0.4132995736   1.70e-09    1.86e-05      N
                     2   0.6883915824  -1.20e-07    4.50e-05      N
Iter=8    L=16    Root    EOM Energy     Delta E   Res. Norm    Conv?
                     1   0.4132995588  -1.48e-08    3.63e-06      N
                     2   0.6883915996   1.72e-08    1.42e-05      N
Iter=9    L=18    Root    EOM Energy     Delta E   Res. Norm    Conv?
                     1   0.4132995578  -9.50e-10    6.64e-07      Y
                     2   0.6883916013   1.70e-09    3.65e-06      N
Iter=10   L=19    Root    EOM Energy     Delta E   Res. Norm    Conv?
                     1   0.4132995578  -6.72e-12    3.24e-07      Y
                     2   0.6883916010  -3.21e-10    5.34e-07      Y
Collapsing to only 2 vector(s).

Procedure converged for 2 root(s).
EOM CC2 R0 for root 0 =  -0.01101415911
EOM CC2 R0 for root 1 =  -0.01559960104

Final Energetic Summary for Converged Roots of Irrep A1
                     Excitation Energy              Total Energy
                (eV)     (cm^-1)     (au)             (au)
EOM State 1     11.246    90708.8   0.4132995578   -75.809233721096

Largest components of excited wave function #1:
 RIA (libdpd indices) : (cscf notation)
         2 >   0      :       3a1 >    4a1 :    0.6865230914
         2 >   1      :       3a1 >    5a1 :    0.0493551708
         0 >   0      :       1b2 >    2b2 :   -0.0304160988
         1 >   0      :       2a1 >    4a1 :   -0.0251599872
         0 >   0      :       1b1 >    2b1 :    0.0206125101
 RIjAb (libdpd indices)     : (cscf notation)
        2   2 >   0   0     :    3a1    3a1 >    4a1    4a1 :   -0.0568208278
        2   0 >   0   0     :    3a1    1b2 >    4a1    2b2 :   -0.0493741172
        0   2 >   0   0     :    1b2    3a1 >    2b2    4a1 :   -0.0493741172
        2   2 >   0   2     :    3a1    3a1 >    4a1    6a1 :    0.0477025940
        2   2 >   2   0     :    3a1    3a1 >    6a1    4a1 :    0.0477025940
EOM State 2     18.732   151084.5   0.6883916010   -75.534141677980

Largest components of excited wave function #2:
 RIA (libdpd indices) : (cscf notation)
         0 >   0      :       1b2 >    2b2 :    0.6831351690
         0 >   0      :       1b1 >    2b1 :    0.0710256365
         2 >   2      :       3a1 >    6a1 :    0.0539491008
         2 >   1      :       3a1 >    5a1 :   -0.0425218402
         0 >   1      :       1b2 >    3b2 :    0.0346180167
 RIjAb (libdpd indices)     : (cscf notation)
        0   0 >   0   0     :    1b2    1b2 >    2b2    2b2 :   -0.1003209542
        0   0 >   0   0     :    1b1    1b2 >    2b1    2b2 :    0.0380946747
        0   0 >   0   0     :    1b2    1b1 >    2b2    2b1 :    0.0380946747
        2   0 >   2   0     :    3a1    1b2 >    6a1    2b2 :    0.0308016918
        0   2 >   0   2     :    1b2    3a1 >    2b2    6a1 :    0.0308016918

Symmetry of excited state: A2
Symmetry of right eigenvector: A2
Seeking states with multiplicity of 1
Obtaining initial guess from singles-singles block of Hbar...Done.

Iter=1    L=2     Root    EOM Energy     Delta E   Res. Norm    Conv?
                     1   0.4987945539   4.99e-01    5.44e-01      N
                     2   0.9459775370   9.46e-01    5.59e-01      N
Iter=2    L=4     Root    EOM Energy     Delta E   Res. Norm    Conv?
                     1   0.3965697271  -1.02e-01    2.50e-02      N
                     2   0.8416306373  -1.04e-01    2.80e-02      N
Iter=3    L=6     Root    EOM Energy     Delta E   Res. Norm    Conv?
                     1   0.3960054134  -5.64e-04    9.62e-03      N
                     2   0.8411209004  -5.10e-04    1.05e-02      N
Iter=4    L=8     Root    EOM Energy     Delta E   Res. Norm    Conv?
                     1   0.3959795299  -2.59e-05    6.99e-04      N
                     2   0.8410866461  -3.43e-05    1.72e-03      N
Iter=5    L=10    Root    EOM Energy     Delta E   Res. Norm    Conv?
                     1   0.3959792777  -2.52e-07    9.40e-05      N
                     2   0.8410860878  -5.58e-07    1.84e-04      N
Iter=6    L=12    Root    EOM Energy     Delta E   Res. Norm    Conv?
                     1   0.3959792994   2.17e-08    1.30e-05      N
                     2   0.8410860830  -4.77e-09    4.62e-05      N
Iter=7    L=14    Root    EOM Energy     Delta E   Res. Norm    Conv?
                     1   0.3959793017   2.33e-09    1.27e-06      N
                     2   0.8410860782  -4.81e-09    6.74e-06      N
Iter=8    L=16    Root    EOM Energy     Delta E   Res. Norm    Conv?
                     1   0.3959793012  -5.06e-10    1.03e-07      Y
                     2   0.8410860772  -1.03e-09    1.50e-06      N
Iter=9    L=17    Root    EOM Energy     Delta E   Res. Norm    Conv?
                     1   0.3959793012   4.06e-14    9.79e-08      Y
                     2   0.8410860772   4.31e-11    1.64e-07      Y
Collapsing to only 2 vector(s).

Procedure converged for 2 root(s).
EOM CC2 R0 for root 0 =   0.00000000000
EOM CC2 R0 for root 1 =   0.00000000000

Final Energetic Summary for Converged Roots of Irrep A2
                     Excitation Energy              Total Energy
                (eV)     (cm^-1)     (au)             (au)
EOM State 3     10.775    86907.4   0.3959793012   -75.826553977720

Largest components of excited wave function #3:
 RIA (libdpd indices) : (cscf notation)
         0 >   0      :       1b1 >    2b2 :    0.6842456136
         0 >   1      :       1b1 >    3b2 :    0.0833407444
         0 >   2      :       1b1 >    4b2 :   -0.0578521386
         0 >   4      :       1b1 >    6b2 :    0.0098134638
         1 >   0      :       2a1 >    1a2 :    0.0032330023
 RIjAb (libdpd indices)     : (cscf notation)
        0   0 >   0   0     :    1b1    1b2 >    2b2    2b2 :   -0.0552000457
        0   0 >   0   0     :    1b2    1b1 >    2b2    2b2 :   -0.0552000457
        0   0 >   0   0     :    1b1    1b1 >    2b1    2b2 :    0.0528674012
        0   0 >   0   0     :    1b1    1b1 >    2b2    2b1 :    0.0528674012
        2   0 >   2   0     :    3a1    1b1 >    6a1    2b2 :    0.0374006823
EOM State 4     22.887   184597.0   0.8410860772   -75.381447201697

Largest components of excited wave function #4:
 RIA (libdpd indices) : (cscf notation)
         0 >   1      :       1b1 >    3b2 :    0.6871275225
         0 >   0      :       1b1 >    2b2 :   -0.0748276195
         0 >   4      :       1b1 >    6b2 :    0.0308136341
         0 >   2      :       1b1 >    4b2 :   -0.0271412421
         0 >   0      :       1b2 >    2b1 :    0.0066255648
 RIjAb (libdpd indices)     : (cscf notation)
        0   0 >   0   1     :    1b1    1b1 >    2b1    3b2 :    0.0423138430
        0   0 >   1   0     :    1b1    1b1 >    3b2    2b1 :    0.0423138430
        0   0 >   1   1     :    1b1    1b2 >    3b2    3b2 :   -0.0395731969
        0   0 >   1   1     :    1b2    1b1 >    3b2    3b2 :   -0.0395731969
        0   0 >   1   0     :    1b1    1b2 >    3b2    2b2 :   -0.0318278329

Symmetry of excited state: B1
Symmetry of right eigenvector: B1
Seeking states with multiplicity of 1
Obtaining initial guess from singles-singles block of Hbar...Done.

Iter=1    L=2     Root    EOM Energy     Delta E   Res. Norm    Conv?
                     1   0.4251090839   4.25e-01    5.45e-01      N
                     2   1.0342568217   1.03e+00    5.65e-01      N
Iter=2    L=4     Root    EOM Energy     Delta E   Res. Norm    Conv?
                     1   0.3186156390  -1.06e-01    2.17e-02      N
                     2   0.9293810571  -1.05e-01    3.68e-02      N
Iter=3    L=6     Root    EOM Energy     Delta E   Res. Norm    Conv?
                     1   0.3183403776  -2.75e-04    5.33e-03      N
                     2   0.9271904365  -2.19e-03    3.17e-02      N
Iter=4    L=8     Root    EOM Energy     Delta E   Res. Norm    Conv?
                     1   0.3183314229  -8.95e-06    7.57e-04      N
                     2   0.9266613799  -5.29e-04    1.26e-02      N
Iter=5    L=10    Root    EOM Energy     Delta E   Res. Norm    Conv?
                     1   0.3183309847  -4.38e-07    1.04e-04      N
                     2   0.9265778168  -8.36e-05    2.11e-03      N
Iter=6    L=12    Root    EOM Energy     Delta E   Res. Norm    Conv?
                     1   0.3183310254   4.06e-08    1.26e-05      N
                     2   0.9265767015  -1.12e-06    4.83e-04      N
Iter=7    L=14    Root    EOM Energy     Delta E   Res. Norm    Conv?
                     1   0.3183310223  -3.07e-09    1.44e-06      N
                     2   0.9265764725  -2.29e-07    1.37e-04      N
Iter=8    L=16    Root    EOM Energy     Delta E   Res. Norm    Conv?
                     1   0.3183310220  -2.58e-10    1.50e-07      Y
                     2   0.9265763822  -9.03e-08    3.11e-05      N
Iter=9    L=17    Root    EOM Energy     Delta E   Res. Norm    Conv?
                     1   0.3183310220  -6.41e-14    1.50e-07      Y
                     2   0.9265763801  -2.04e-09    7.22e-06      N
Iter=10   L=18    Root    EOM Energy     Delta E   Res. Norm    Conv?
                     1   0.3183310220  -1.42e-12    1.48e-07      Y
                     2   0.9265763818   1.70e-09    1.09e-06      N
Iter=11   L=19    Root    EOM Energy     Delta E   Res. Norm    Conv?
                     1   0.3183310220  -1.59e-12    1.49e-07      Y
                     2   0.9265763817  -1.56e-10    2.16e-07      Y
Collapsing to only 2 vector(s).

Procedure converged for 2 root(s).
EOM CC2 R0 for root 0 =   0.00000000000
EOM CC2 R0 for root 1 =   0.00000000000

Final Energetic Summary for Converged Roots of Irrep B1
                     Excitation Energy              Total Energy
                (eV)     (cm^-1)     (au)             (au)
EOM State 5      8.662    69865.6   0.3183310220   -75.904202256911

Largest components of excited wave function #5:
 RIA (libdpd indices) : (cscf notation)
         0 >   0      :       1b1 >    4a1 :    0.6877768713
         0 >   1      :       1b1 >    5a1 :    0.0599176473
         0 >   2      :       1b1 >    6a1 :   -0.0203437679
         0 >   4      :       1b1 >    8a1 :   -0.0192517499
         0 >   3      :       1b1 >    7a1 :    0.0127205644
 RIjAb (libdpd indices)     : (cscf notation)
        0   0 >   0   0     :    1b1    1b1 >    4a1    2b1 :    0.0553402492
        0   0 >   0   0     :    1b1    1b1 >    2b1    4a1 :    0.0553402492
        0   0 >   0   0     :    1b1    1b2 >    4a1    2b2 :   -0.0511727615
        0   0 >   0   0     :    1b2    1b1 >    2b2    4a1 :   -0.0511727615
        2   0 >   2   0     :    3a1    1b1 >    6a1    4a1 :    0.0409052844
EOM State 6     25.213   203360.0   0.9265763817   -75.295956897250

Largest components of excited wave function #6:
 RIA (libdpd indices) : (cscf notation)
         0 >   1      :       1b1 >    5a1 :    0.6852269995
         0 >   2      :       1b1 >    6a1 :   -0.0641363794
         0 >   0      :       1b1 >    4a1 :   -0.0499616442
         0 >   5      :       1b1 >    9a1 :    0.0220003602
         0 >   0      :       1b2 >    1a2 :    0.0218311784
 RIjAb (libdpd indices)     : (cscf notation)
        0   0 >   1   1     :    1b1    1b2 >    5a1    3b2 :   -0.0413164680
        0   0 >   1   1     :    1b2    1b1 >    3b2    5a1 :   -0.0413164680
        0   0 >   1   0     :    1b1    1b2 >    5a1    2b2 :   -0.0351594072
        0   0 >   0   1     :    1b2    1b1 >    2b2    5a1 :   -0.0351594072
        0   0 >   1   0     :    1b1    1b1 >    5a1    2b1 :    0.0345892853

Symmetry of excited state: B2
Symmetry of right eigenvector: B2
Seeking states with multiplicity of 1
Obtaining initial guess from singles-singles block of Hbar...Done.

Iter=1    L=2     Root    EOM Energy     Delta E   Res. Norm    Conv?
                     1   0.5966765623   5.97e-01    5.39e-01      N
                     2   0.6641275023   6.64e-01    4.91e-01      N
Iter=2    L=4     Root    EOM Energy     Delta E   Res. Norm    Conv?
                     1   0.4946597961  -1.02e-01    3.28e-02      N
                     2   0.5800893564  -8.40e-02    2.00e-02      N
Iter=3    L=6     Root    EOM Energy     Delta E   Res. Norm    Conv?
                     1   0.4935550830  -1.10e-03    1.92e-02      N
                     2   0.5797147877  -3.75e-04    1.03e-02      N
Iter=4    L=8     Root    EOM Energy     Delta E   Res. Norm    Conv?
                     1   0.4934098198  -1.45e-04    3.02e-03      N
                     2   0.5796766454  -3.81e-05    1.66e-03      N
Iter=5    L=10    Root    EOM Energy     Delta E   Res. Norm    Conv?
                     1   0.4934036049  -6.21e-06    9.01e-04      N
                     2   0.5796755432  -1.10e-06    3.81e-04      N
Iter=6    L=12    Root    EOM Energy     Delta E   Res. Norm    Conv?
                     1   0.4934034869  -1.18e-07    2.41e-04      N
                     2   0.5796756935   1.50e-07    7.04e-05      N
Iter=7    L=14    Root    EOM Energy     Delta E   Res. Norm    Conv?
                     1   0.4934035805   9.36e-08    3.77e-05      N
                     2   0.5796757368   4.33e-08    1.78e-05      N
Iter=8    L=16    Root    EOM Energy     Delta E   Res. Norm    Conv?
                     1   0.4934035532  -2.73e-08    5.64e-06      N
                     2   0.5796757418   5.08e-09    3.73e-06      N
Iter=9    L=18    Root    EOM Energy     Delta E   Res. Norm    Conv?
                     1   0.4934035535   3.10e-10    1.46e-06      N
                     2   0.5796757435   1.70e-09    7.78e-07      Y
Iter=10   L=19    Root    EOM Energy     Delta E   Res. Norm    Conv?
                     1   0.4934035544   8.90e-10    2.22e-07      Y
                     2   0.5796757437   1.08e-10    6.17e-07      Y
Collapsing to only 2 vector(s).

Procedure converged for 2 root(s).
Energy written to CC_INFO:Etot  -75.6428575353
States per irrep written to CC_INFO.
EOM CC2 R0 for root 0 =   0.00000000000
EOM CC2 R0 for root 1 =   0.00000000000

Final Energetic Summary for Converged Roots of Irrep B2
                     Excitation Energy              Total Energy
                (eV)     (cm^-1)     (au)             (au)
EOM State 7     13.426   108289.5   0.4934035544   -75.729129724548

Largest components of excited wave function #7:
 RIA (libdpd indices) : (cscf notation)
         2 >   0      :       3a1 >    2b2 :    0.6862314267
         2 >   2      :       3a1 >    4b2 :   -0.0579056472
         2 >   1      :       3a1 >    3b2 :    0.0551717106
         0 >   1      :       1b2 >    5a1 :   -0.0179859894
         0 >   0      :       1b2 >    4a1 :   -0.0121127157
 RIjAb (libdpd indices)     : (cscf notation)
        2   0 >   0   0     :    3a1    1b2 >    2b2    2b2 :   -0.0535998891
        0   2 >   0   0     :    1b2    3a1 >    2b2    2b2 :   -0.0535998891
        2   0 >   0   0     :    3a1    1b1 >    2b2    2b1 :    0.0445219580
        0   2 >   0   0     :    1b1    3a1 >    2b1    2b2 :    0.0445219580
        2   2 >   2   0     :    3a1    3a1 >    6a1    2b2 :    0.0426370668
EOM State 8     15.774   127224.1   0.5796757437   -75.642857535277

Largest components of excited wave function #8:
 RIA (libdpd indices) : (cscf notation)
         0 >   0      :       1b2 >    4a1 :    0.6912700096
         0 >   1      :       1b2 >    5a1 :    0.0512615495
         0 >   2      :       1b2 >    6a1 :   -0.0228714707
         1 >   0      :       2a1 >    2b2 :    0.0178075199
         2 >   1      :       3a1 >    3b2 :   -0.0165803805
 RIjAb (libdpd indices)     : (cscf notation)
        0   0 >   0   0     :    1b2    1b2 >    4a1    2b2 :   -0.0599002445
        0   0 >   0   0     :    1b2    1b2 >    2b2    4a1 :   -0.0599002445
        0   0 >   0   0     :    1b1    1b2 >    2b1    4a1 :    0.0388947764
        0   0 >   0   0     :    1b2    1b1 >    4a1    2b1 :    0.0388947764
        2   0 >   2   0     :    3a1    1b2 >    6a1    4a1 :    0.0333808869

	Putting into environment energy for root of R irrep 4 and root 2.
	Putting into environment CURRENT ENERGY:              -75.6428575353

	Total # of sigma evaluations: 74

*** tstop() called on psinet at Mon May 15 15:34:44 2017
Module time:
	user time   =       0.21 seconds =       0.00 minutes
	system time =       0.23 seconds =       0.00 minutes
	total time  =          1 seconds =       0.02 minutes
Total time:
	user time   =       0.71 seconds =       0.01 minutes
	system time =       0.46 seconds =       0.01 minutes
	total time  =          2 seconds =       0.03 minutes
	SCF energy........................................................PASSED
	CC2 energy........................................................PASSED
	EOM-CC2 root 1....................................................PASSED
	EOM-CC2 root 2....................................................PASSED
	EOM-CC2 root 3....................................................PASSED
	EOM-CC2 root 4....................................................PASSED
	EOM-CC2 root 5....................................................PASSED
	EOM-CC2 root 6....................................................PASSED
	EOM-CC2 root 7....................................................PASSED
	EOM-CC2 root 8....................................................PASSED

*** Psi4 exiting successfully. Buy a developer a beer!
