    -----------------------------------------------------------------------
          Psi4: An Open-Source Ab Initio Electronic Structure Package
                              Psi4 0.4.190 Driver

                          Git: Rev {test_ref_refresh} 9b1b239 dirty

    J. M. Turney, A. C. Simmonett, R. M. Parrish, E. G. Hohenstein,
    F. A. Evangelista, J. T. Fermann, B. J. Mintz, L. A. Burns, J. J. Wilke,
    M. L. Abrams, N. J. Russ, M. L. Leininger, C. L. Janssen, E. T. Seidl,
    W. D. Allen, H. F. Schaefer, R. A. King, E. F. Valeev, C. D. Sherrill,
    and T. D. Crawford, WIREs Comput. Mol. Sci. 2, 556-565 (2012)
    (doi: 10.1002/wcms.93)

                         Additional Contributions by
    A. E. DePrince, U. Bozkaya, A. Yu. Sokolov, D. G. A. Smith, R. Di Remigio,
    R. M. Richard, J. F. Gonthier, H. R. McAlexander, M. Saitow, and
    B. P. Pritchard
    -----------------------------------------------------------------------


    Psi4 started on: Mon Apr  4 10:22:36 2016

    Process ID:   4628
    PSI4DATADIR: /home/dsmith/Gits/dgas_psi/share
    Memory level set to 256.000 MB

  ==> Input File <==

--------------------------------------------------------------------------
#! Frozen-core CCSD(T)/cc-pVDZ on C4H4N anion with disk ao algorithm

molecule C4H4N {
    -1 1
    units bohr
    C         0.00000000     0.00000000     2.13868804
    N         0.00000000     0.00000000     4.42197911
    C         0.00000000     0.00000000    -0.46134192
    C        -1.47758582     0.00000000    -2.82593059
    C         1.47758582     0.00000000    -2.82593059
    H        -2.41269553    -1.74021190    -3.52915989
    H        -2.41269553     1.74021190    -3.52915989
    H         2.41269553     1.74021190    -3.52915989
    H         2.41269553    -1.74021190    -3.52915989
}

memory 1 gb

set {
  basis cc-pVDZ
  print 2
  docc [10, 1, 4, 3]
  freeze_core true
  ao_basis disk
  restart true
}

energy('ccsd(t)')

refnuc  =  135.092128488419604 #TEST
refscf  = -208.153697555164882 #TEST
refccsd = -208.885085641759929 #TEST
ref_t   = -208.915761028789774 #TEST

compare_values(refnuc, C4H4N.nuclear_repulsion_energy(), 9, "Nuclear repulsion energy") #TEST
compare_values(refscf, get_variable("SCF total energy"), 7, "SCF energy") #TEST
compare_values(refccsd, get_variable("CCSD total energy"), 7, "CCSD energy") #TEST
compare_values(ref_t, get_variable("Current energy"), 7, "CCSD(T) energy") #TEST

--------------------------------------------------------------------------

  Memory set to 1000.000 MiB by Python script.
   => Loading Basis Set <=

    Role: BASIS
    Keyword: BASIS
    Name: CC-PVDZ
    atoms 1, 3-5 entry C          line   130 file /home/dsmith/Gits/dgas_psi/share/basis/cc-pvdz.gbs
    atoms 2      entry N          line   160 file /home/dsmith/Gits/dgas_psi/share/basis/cc-pvdz.gbs
    atoms 6-9    entry H          line    20 file /home/dsmith/Gits/dgas_psi/share/basis/cc-pvdz.gbs


*** tstart() called on ds1.sherrill.chemistry.gatech.edu
*** at Mon Apr  4 10:22:36 2016


         ---------------------------------------------------------
                                   SCF
            by Justin Turney, Rob Parrish, and Andy Simmonett
                              RHF Reference
                        1 Threads,   1000 MiB Core
         ---------------------------------------------------------

  ==> Geometry <==

    Molecular point group: c2v
    Full point group: C2v

    Geometry (in Bohr), charge = -1, multiplicity = 1:

       Center              X                  Y                   Z               Mass       
    ------------   -----------------  -----------------  -----------------  -----------------
           C          0.000000000000    -0.000000000000     2.138687778202    12.000000000000
           N          0.000000000000    -0.000000000000     4.421978848202    14.003074004780
           C          0.000000000000    -0.000000000000    -0.461342181798    12.000000000000
           C         -1.477585820000    -0.000000000000    -2.825930851798    12.000000000000
           C          1.477585820000     0.000000000000    -2.825930851798    12.000000000000
           H         -2.412695530000    -1.740211900000    -3.529160151798     1.007825032070
           H         -2.412695530000     1.740211900000    -3.529160151798     1.007825032070
           H          2.412695530000     1.740211900000    -3.529160151798     1.007825032070
           H          2.412695530000    -1.740211900000    -3.529160151798     1.007825032070

  Running in c2v symmetry.

  Rotational constants: A =      0.68352  B =      0.10285  C =      0.09276 [cm^-1]
  Rotational constants: A =  20491.43031  B =   3083.25870  C =   2780.83592 [MHz]
  Nuclear repulsion =  135.092128488419604

  Charge       = -1
  Multiplicity = 1
  Electrons    = 36
  Nalpha       = 18
  Nbeta        = 18

  ==> Algorithm <==

  SCF Algorithm Type is PK.
  DIIS enabled.
  MOM disabled.
  Fractional occupation disabled.
  Guess Type is CORE.
  Energy threshold   = 1.00e-08
  Density threshold  = 1.00e-08
  Integral threshold = 0.00e+00

  ==> Primary Basis <==

  -AO BASIS SET INFORMATION:
    Name                   = CC-PVDZ
    Total number of shells = 42
    Number of primitives   = 130
    Number of AO           = 95
    Number of SO           = 90
    Maximum AM             = 2
    Spherical Harmonics    = TRUE

  -Contraction Scheme:
    Atom   Type   All Primitives // Shells:
   ------ ------ --------------------------
       1     C     17s 4p 1d // 3s 2p 1d 
       2     N     17s 4p 1d // 3s 2p 1d 
       3     C     17s 4p 1d // 3s 2p 1d 
       4     C     17s 4p 1d // 3s 2p 1d 
       5     C     17s 4p 1d // 3s 2p 1d 
       6     H     4s 1p // 2s 1p 
       7     H     4s 1p // 2s 1p 
       8     H     4s 1p // 2s 1p 
       9     H     4s 1p // 2s 1p 

  ==> Pre-Iterations <==

   -------------------------------------------------------
    Irrep   Nso     Nmo     Nalpha   Nbeta   Ndocc  Nsocc
   -------------------------------------------------------
     A1        36      36      10      10      10       0
     A2        12      12       1       1       1       0
     B1        24      24       4       4       4       0
     B2        18      18       3       3       3       0
   -------------------------------------------------------
    Total      90      90      18      18      18       0
   -------------------------------------------------------

  ==> Integral Setup <==

	Batch   1 pq = [       0,    1215] index = [             0,738720]
  ==> DiskJK: Disk-Based J/K Matrices <==

    J tasked:                  Yes
    K tasked:                  Yes
    wK tasked:                  No
    Memory (MB):               715
    Schwarz Cutoff:          1E-12

  Minimum eigenvalue in the overlap matrix is 1.0784772041E-03.
  Using Symmetric Orthogonalization.
  SCF Guess: Core (One-Electron) Hamiltonian.

  ==> Iterations <==

                        Total Energy        Delta E     RMS |[F,P]|

   @RHF iter   1:  -173.02990812614840   -1.73030e+02   1.00706e-01 
   @RHF iter   2:  -184.45862431301040   -1.14287e+01   8.77807e-02 DIIS
   @RHF iter   3:  -207.61075494413669   -2.31521e+01   1.95292e-02 DIIS
   @RHF iter   4:  -208.01209990130528   -4.01345e-01   9.83726e-03 DIIS
   @RHF iter   5:  -208.14091592800102   -1.28816e-01   2.44411e-03 DIIS
   @RHF iter   6:  -208.15252460254962   -1.16087e-02   7.33817e-04 DIIS
   @RHF iter   7:  -208.15352242775762   -9.97825e-04   2.74645e-04 DIIS
   @RHF iter   8:  -208.15367779289855   -1.55365e-04   7.10104e-05 DIIS
   @RHF iter   9:  -208.15369502305478   -1.72302e-05   2.00378e-05 DIIS
   @RHF iter  10:  -208.15369704727479   -2.02422e-06   7.32708e-06 DIIS
   @RHF iter  11:  -208.15369744683099   -3.99556e-07   3.51798e-06 DIIS
   @RHF iter  12:  -208.15369755057733   -1.03746e-07   1.06484e-06 DIIS
   @RHF iter  13:  -208.15369755494575   -4.36842e-09   2.86495e-07 DIIS
   @RHF iter  14:  -208.15369755515209   -2.06342e-10   5.36797e-08 DIIS
   @RHF iter  15:  -208.15369755516448   -1.23919e-11   1.20498e-08 DIIS
   @RHF iter  16:  -208.15369755516488   -3.97904e-13   2.76690e-09 DIIS

  ==> Post-Iterations <==

    Orbital Energies (a.u.)
    -----------------------

    Doubly Occupied:                                                      

       1A1   -15.320904     2A1   -11.070098     1B1   -11.069592  
       3A1   -11.066982     4A1   -11.001102     5A1    -0.955126  
       6A1    -0.921297     7A1    -0.667532     2B1    -0.638626  
       8A1    -0.492937     1B2    -0.448627     1A2    -0.331036  
       9A1    -0.323566     3B1    -0.289294     2B2    -0.261084  
      10A1    -0.241617     4B1    -0.182464     3B2    -0.055447  

    Virtual:                                                              

      11A1     0.345941     4B2     0.373159     5B1     0.374079  
       6B1     0.411220     2A2     0.447147     7B1     0.510571  
       5B2     0.514937    12A1     0.518475    13A1     0.613118  
       8B1     0.680882    14A1     0.692987    15A1     0.784011  
       6B2     0.862563     9B1     0.883386    16A1     0.919707  
       7B2     0.919890    17A1     0.929314    10B1     0.937015  
       3A2     0.998247    11B1     1.002667     8B2     1.046658  
       4A2     1.059810    12B1     1.060156    18A1     1.078249  
       9B2     1.080386    19A1     1.132281    13B1     1.160574  
      20A1     1.224382    10B2     1.327930    14B1     1.351773  
      21A1     1.388445    11B2     1.439395    22A1     1.530477  
       5A2     1.537840    23A1     1.579768     6A2     1.593471  
      15B1     1.670902    24A1     1.672269    12B2     1.713413  
      25A1     1.801431     7A2     1.831612    16B1     1.868441  
      26A1     1.889550    13B2     1.974883     8A2     2.033041  
      14B2     2.042497    17B1     2.052559    18B1     2.069126  
      27A1     2.098202    28A1     2.115706    29A1     2.182176  
      15B2     2.197374    19B1     2.311650    30A1     2.353131  
       9A2     2.406855    20B1     2.412767    31A1     2.459559  
      10A2     2.508080    16B2     2.579679    21B1     2.643804  
      11A2     2.645639    32A1     2.646358    22B1     2.784794  
      33A1     2.882316    34A1     2.952834    17B2     2.962743  
      23B1     3.002065    12A2     3.164312    35A1     3.355988  
      24B1     3.361645    18B2     3.363677    36A1     3.491024  

    Final Occupation by Irrep:
             A1    A2    B1    B2 
    DOCC [    10,    1,    4,    3 ]

  Energy converged.

  @RHF Final Energy:  -208.15369755516488

   => Energetics <=

    Nuclear Repulsion Energy =            135.0921284884196041
    One-Electron Energy =                -555.8169822422603374
    Two-Electron Energy =                 212.5711561986758227
    DFT Exchange-Correlation Energy =       0.0000000000000000
    Empirical Dispersion Energy =           0.0000000000000000
    PCM Polarization Energy =               0.0000000000000000
    EFP Energy =                            0.0000000000000000
    Total Energy =                       -208.1536975551649391

    Alert: EFP and PCM quantities not currently incorporated into SCF psivars.

Properties will be evaluated at   0.000000,   0.000000,   0.000000 Bohr
  ==> Properties <==


Properties computed using the SCF density matrix

  Nuclear Dipole Moment: (a.u.)
     X:    -0.0000      Y:     0.0000      Z:    -7.0099

  Electronic Dipole Moment: (a.u.)
     X:     0.0000      Y:     0.0000      Z:     5.2752

  Dipole Moment: (a.u.)
     X:    -0.0000      Y:     0.0000      Z:    -1.7347     Total:     1.7347

  Dipole Moment: (Debye)
     X:    -0.0000      Y:     0.0000      Z:    -4.4091     Total:     4.4091

  Quadrupole Moment: (Debye Ang)
    XX:   -34.2053     YY:   -33.8470     ZZ:   -53.7628
    XY:     0.0000     XZ:     0.0000     YZ:     0.0000

  Traceless Quadrupole Moment: (Debye Ang)
    XX:     6.3997     YY:     6.7580     ZZ:   -13.1578
    XY:     0.0000     XZ:     0.0000     YZ:     0.0000

  Mulliken Charges: (a.u.)
   Center  Symbol    Alpha    Beta     Spin     Total
       1     C     3.07730  3.07730  0.00000 -0.15459
       2     N     3.70581  3.70581  0.00000 -0.41161
       3     C     3.14139  3.14139  0.00000 -0.28277
       4     C     3.01591  3.01591  0.00000 -0.03182
       5     C     3.01591  3.01591  0.00000 -0.03182
       6     H     0.51092  0.51092  0.00000 -0.02185
       7     H     0.51092  0.51092  0.00000 -0.02185
       8     H     0.51092  0.51092  0.00000 -0.02185
       9     H     0.51092  0.51092  0.00000 -0.02185

   Total alpha = 18.00000, Total beta = 18.00000, Total charge = -1.00000


  Saving occupied orbitals to File 180.

*** tstop() called on ds1.sherrill.chemistry.gatech.edu at Mon Apr  4 10:22:38 2016
Module time:
	user time   =       1.34 seconds =       0.02 minutes
	system time =       0.09 seconds =       0.00 minutes
	total time  =          2 seconds =       0.03 minutes
Total time:
	user time   =       1.34 seconds =       0.02 minutes
	system time =       0.09 seconds =       0.00 minutes
	total time  =          2 seconds =       0.03 minutes

*** tstart() called on ds1.sherrill.chemistry.gatech.edu
*** at Mon Apr  4 10:22:38 2016


	Wfn Parameters:
	--------------------
	Wavefunction         = CCSD_T
	Number of irreps     = 4
	Number of MOs        = 90
	Number of active MOs = 85
	AO-Basis             = DISK
	Semicanonical        = false
	Reference            = RHF
	Print Level          = 2

	IRREP	# MOs	# FZDC	# DOCC	# SOCC	# VIRT	# FZVR
	-----	-----	------	------	------	------	------
	 A1	   36	    4	    6	    0	    26	    0
	 A2	   12	    0	    1	    0	    11	    0
	 B1	   24	    1	    3	    0	    20	    0
	 B2	   18	    0	    3	    0	    15	    0
	Transforming integrals...
	IWL integrals will be retained.
	(OO|OO)...
	Presorting SO-basis two-electron integrals.
	Sorting File: SO Ints (nn|nn) nbuckets = 1
	Transforming the one-electron integrals and constructing Fock matrices
	Starting first half-transformation.
	h = 0; memfree         = 124997605
	h = 0; rows_per_bucket = 1215
	h = 0; rows_left       = 0
	h = 0; nbuckets        = 1
	h = 1; memfree         = 124998242
	h = 1; rows_per_bucket = 864
	h = 1; rows_left       = 0
	h = 1; nbuckets        = 1
	h = 2; memfree         = 124997798
	h = 2; rows_per_bucket = 1080
	h = 2; rows_left       = 0
	h = 2; nbuckets        = 1
	h = 3; memfree         = 124998086
	h = 3; rows_per_bucket = 936
	h = 3; rows_left       = 0
	h = 3; nbuckets        = 1
	Sorting half-transformed integrals.
	First half integral transformation complete.
	Starting second half-transformation.
	h = 0; memfree         = 124997605
	h = 0; rows_per_bucket = 34
	h = 0; rows_left       = 0
	h = 0; nbuckets        = 1
	h = 1; memfree         = 124998242
	h = 1; rows_per_bucket = 15
	h = 1; rows_left       = 0
	h = 1; nbuckets        = 1
	h = 2; memfree         = 124997798
	h = 2; rows_per_bucket = 21
	h = 2; rows_left       = 0
	h = 2; nbuckets        = 1
	h = 3; memfree         = 124998086
	h = 3; rows_per_bucket = 21
	h = 3; rows_left       = 0
	h = 3; nbuckets        = 1
	Two-electron integral transformation complete.
	(OO|OV)...
	Starting second half-transformation.
	h = 0; memfree         = 124997388
	h = 0; rows_per_bucket = 34
	h = 0; rows_left       = 0
	h = 0; nbuckets        = 1
	h = 1; memfree         = 124998075
	h = 1; rows_per_bucket = 15
	h = 1; rows_left       = 0
	h = 1; nbuckets        = 1
	h = 2; memfree         = 124997594
	h = 2; rows_per_bucket = 21
	h = 2; rows_left       = 0
	h = 2; nbuckets        = 1
	h = 3; memfree         = 124997907
	h = 3; rows_per_bucket = 21
	h = 3; rows_left       = 0
	h = 3; nbuckets        = 1
	Two-electron integral transformation complete.
	(OO|VV)...
	Starting second half-transformation.
	h = 0; memfree         = 124996238
	h = 0; rows_per_bucket = 34
	h = 0; rows_left       = 0
	h = 0; nbuckets        = 1
	h = 1; memfree         = 124997100
	h = 1; rows_per_bucket = 15
	h = 1; rows_left       = 0
	h = 1; nbuckets        = 1
	h = 2; memfree         = 124996470
	h = 2; rows_per_bucket = 21
	h = 2; rows_left       = 0
	h = 2; nbuckets        = 1
	h = 3; memfree         = 124996908
	h = 3; rows_per_bucket = 21
	h = 3; rows_left       = 0
	h = 3; nbuckets        = 1
	Two-electron integral transformation complete.
	(OV|OO)...
	Starting first half-transformation.
	h = 0; memfree         = 124997388
	h = 0; rows_per_bucket = 1215
	h = 0; rows_left       = 0
	h = 0; nbuckets        = 1
	h = 1; memfree         = 124998075
	h = 1; rows_per_bucket = 864
	h = 1; rows_left       = 0
	h = 1; nbuckets        = 1
	h = 2; memfree         = 124997594
	h = 2; rows_per_bucket = 1080
	h = 2; rows_left       = 0
	h = 2; nbuckets        = 1
	h = 3; memfree         = 124997907
	h = 3; rows_per_bucket = 936
	h = 3; rows_left       = 0
	h = 3; nbuckets        = 1
	Sorting half-transformed integrals.
	First half integral transformation complete.
	Starting second half-transformation.
	h = 0; memfree         = 124997605
	h = 0; rows_per_bucket = 272
	h = 0; rows_left       = 0
	h = 0; nbuckets        = 1
	h = 1; memfree         = 124998242
	h = 1; rows_per_bucket = 197
	h = 1; rows_left       = 0
	h = 1; nbuckets        = 1
	h = 2; memfree         = 124997798
	h = 2; rows_per_bucket = 246
	h = 2; rows_left       = 0
	h = 2; nbuckets        = 1
	h = 3; memfree         = 124998086
	h = 3; rows_per_bucket = 221
	h = 3; rows_left       = 0
	h = 3; nbuckets        = 1
	Two-electron integral transformation complete.
	(OV|OV)...
	Starting second half-transformation.
	h = 0; memfree         = 124997388
	h = 0; rows_per_bucket = 272
	h = 0; rows_left       = 0
	h = 0; nbuckets        = 1
	h = 1; memfree         = 124998075
	h = 1; rows_per_bucket = 197
	h = 1; rows_left       = 0
	h = 1; nbuckets        = 1
	h = 2; memfree         = 124997594
	h = 2; rows_per_bucket = 246
	h = 2; rows_left       = 0
	h = 2; nbuckets        = 1
	h = 3; memfree         = 124997907
	h = 3; rows_per_bucket = 221
	h = 3; rows_left       = 0
	h = 3; nbuckets        = 1
	Two-electron integral transformation complete.
	(OV|VV)...
	Starting second half-transformation.
	h = 0; memfree         = 124996238
	h = 0; rows_per_bucket = 272
	h = 0; rows_left       = 0
	h = 0; nbuckets        = 1
	h = 1; memfree         = 124997100
	h = 1; rows_per_bucket = 197
	h = 1; rows_left       = 0
	h = 1; nbuckets        = 1
	h = 2; memfree         = 124996470
	h = 2; rows_per_bucket = 246
	h = 2; rows_left       = 0
	h = 2; nbuckets        = 1
	h = 3; memfree         = 124996908
	h = 3; rows_per_bucket = 221
	h = 3; rows_left       = 0
	h = 3; nbuckets        = 1
	Two-electron integral transformation complete.
	(VV|OO)...
	Starting first half-transformation.
	h = 0; memfree         = 124996238
	h = 0; rows_per_bucket = 1215
	h = 0; rows_left       = 0
	h = 0; nbuckets        = 1
	h = 1; memfree         = 124997100
	h = 1; rows_per_bucket = 864
	h = 1; rows_left       = 0
	h = 1; nbuckets        = 1
	h = 2; memfree         = 124996470
	h = 2; rows_per_bucket = 1080
	h = 2; rows_left       = 0
	h = 2; nbuckets        = 1
	h = 3; memfree         = 124996908
	h = 3; rows_per_bucket = 936
	h = 3; rows_left       = 0
	h = 3; nbuckets        = 1
	Sorting half-transformed integrals.
	First half integral transformation complete.
	Starting second half-transformation.
	h = 0; memfree         = 124997605
	h = 0; rows_per_bucket = 747
	h = 0; rows_left       = 0
	h = 0; nbuckets        = 1
	h = 1; memfree         = 124998242
	h = 1; rows_per_bucket = 586
	h = 1; rows_left       = 0
	h = 1; nbuckets        = 1
	h = 2; memfree         = 124997798
	h = 2; rows_per_bucket = 685
	h = 2; rows_left       = 0
	h = 2; nbuckets        = 1
	h = 3; memfree         = 124998086
	h = 3; rows_per_bucket = 610
	h = 3; rows_left       = 0
	h = 3; nbuckets        = 1
	Two-electron integral transformation complete.
	(VV|OV)...
	Starting second half-transformation.
	h = 0; memfree         = 124997388
	h = 0; rows_per_bucket = 747
	h = 0; rows_left       = 0
	h = 0; nbuckets        = 1
	h = 1; memfree         = 124998075
	h = 1; rows_per_bucket = 586
	h = 1; rows_left       = 0
	h = 1; nbuckets        = 1
	h = 2; memfree         = 124997594
	h = 2; rows_per_bucket = 685
	h = 2; rows_left       = 0
	h = 2; nbuckets        = 1
	h = 3; memfree         = 124997907
	h = 3; rows_per_bucket = 610
	h = 3; rows_left       = 0
	h = 3; nbuckets        = 1
	Two-electron integral transformation complete.
	(VV|VV)...
	Starting second half-transformation.
	h = 0; memfree         = 124996238
	h = 0; rows_per_bucket = 747
	h = 0; rows_left       = 0
	h = 0; nbuckets        = 1
	h = 1; memfree         = 124997100
	h = 1; rows_per_bucket = 586
	h = 1; rows_left       = 0
	h = 1; nbuckets        = 1
	h = 2; memfree         = 124996470
	h = 2; rows_per_bucket = 685
	h = 2; rows_left       = 0
	h = 2; nbuckets        = 1
	h = 3; memfree         = 124996908
	h = 3; rows_per_bucket = 610
	h = 3; rows_left       = 0
	h = 3; nbuckets        = 1
	Two-electron integral transformation complete.
	Frozen core energy     =   -240.51542960393812

	Size of irrep 0 of <ab|cd> integrals:      2.022 (MW) /     16.177 (MB)
	Size of irrep 1 of <ab|cd> integrals:      1.374 (MW) /     10.989 (MB)
	Size of irrep 2 of <ab|cd> integrals:      1.877 (MW) /     15.015 (MB)
	Size of irrep 3 of <ab|cd> integrals:      1.488 (MW) /     11.907 (MB)
	Total:                                     6.761 (MW) /     54.088 (MB)

	Size of irrep 0 of <ia|bc> integrals:      0.387 (MW) /      3.094 (MB)
	Size of irrep 1 of <ia|bc> integrals:      0.231 (MW) /      1.847 (MB)
	Size of irrep 2 of <ia|bc> integrals:      0.337 (MW) /      2.696 (MB)
	Size of irrep 3 of <ia|bc> integrals:      0.270 (MW) /      2.157 (MB)
	Total:                                     1.224 (MW) /      9.794 (MB)

	Size of irrep 0 of tijab amplitudes:       0.078 (MW) /      0.626 (MB)
	Size of irrep 1 of tijab amplitudes:       0.035 (MW) /      0.281 (MB)
	Size of irrep 2 of tijab amplitudes:       0.058 (MW) /      0.460 (MB)
	Size of irrep 3 of tijab amplitudes:       0.051 (MW) /      0.410 (MB)
	Total:                                     0.222 (MW) /      1.777 (MB)

	Nuclear Rep. energy          =    135.09212848841960
	SCF energy                   =   -208.15369755516488
	One-electron energy          =   -193.84348289067509
	Two-electron energy          =     91.11308645102879
	Reference energy             =   -208.15369755516480

*** tstop() called on ds1.sherrill.chemistry.gatech.edu at Mon Apr  4 10:22:39 2016
Module time:
	user time   =       0.76 seconds =       0.01 minutes
	system time =       0.43 seconds =       0.01 minutes
	total time  =          1 seconds =       0.02 minutes
Total time:
	user time   =       2.10 seconds =       0.04 minutes
	system time =       0.52 seconds =       0.01 minutes
	total time  =          3 seconds =       0.05 minutes

*** tstart() called on ds1.sherrill.chemistry.gatech.edu
*** at Mon Apr  4 10:22:39 2016

            **************************
            *                        *
            *        CCENERGY        *
            *                        *
            **************************

    Nuclear Rep. energy (wfn)     =  135.092128488419604
    SCF energy          (wfn)     = -208.153697555164882
    Reference energy    (file100) = -208.153697555164797

    Input parameters:
    -----------------
    Wave function   =   CCSD_T
    Reference wfn   =     RHF
    Brueckner       =     No
    Memory (Mbytes) =     1000.0
    Maxiter         =     50
    R_Convergence   =     1.0e-07
    E_Convergence   =     1.0e-06
    Restart         =     Yes
    DIIS            =     Yes
    AO Basis        =     DISK
    ABCD            =     NEW
    Cache Level     =     2
    Cache Type      =     LOW
    Print Level     =     2
    Num. of threads =     1
    # Amps to Print =     10
    Print MP2 Amps? =     No
    Analyze T2 Amps =     No
    Print Pair Ener =     No
    Local CC        =     No
    SCS-MP2         =     False
    SCSN-MP2        =     False
    SCS-CCSD        =     False

MP2 correlation energy -0.7033782483184526
                Solving CC Amplitude Equations
                ------------------------------
  Iter             Energy              RMS        T1Diag      D1Diag    New D1Diag    D2Diag
  ----     ---------------------    ---------   ----------  ----------  ----------   --------
     0        -0.703378248318450    0.000e+00    0.000000    0.000000    0.000000    0.164737
     F intermediates...complete
     T1 amplitudes  ...complete
     Wmbej          ...complete
     Z              ...complete
     Wmnij          ...complete
     <ij||ab> -> T2 ...complete
     F -> T2        ...complete
     Wmnij -> T2    ...complete
     *** Processed 2130602 SO integrals for <ab||cd> --> T2
     <ab||cd> -> T2 ...complete
     Z -> T2        ...complete
     <ia||bc> -> T2 ...complete
     <ij||ka> -> T2 ...complete
     Wmbej -> T2    ...complete
     <ia||jb> -> T2 ...complete
     T2 amplitudes  ...complete
     1        -0.704046235869361    9.110e-02    0.011623    0.039146    0.039146    0.159369
     F intermediates...complete
     T1 amplitudes  ...complete
     Wmbej          ...complete
     Z              ...complete
     Wmnij          ...complete
     <ij||ab> -> T2 ...complete
     F -> T2        ...complete
     Wmnij -> T2    ...complete
     *** Processed 2130602 SO integrals for <ab||cd> --> T2
     <ab||cd> -> T2 ...complete
     Z -> T2        ...complete
     <ia||bc> -> T2 ...complete
     <ij||ka> -> T2 ...complete
     Wmbej -> T2    ...complete
     <ia||jb> -> T2 ...complete
     T2 amplitudes  ...complete
     2        -0.725379183535498    3.418e-02    0.011502    0.037926    0.037926    0.171892
     F intermediates...complete
     T1 amplitudes  ...complete
     Wmbej          ...complete
     Z              ...complete
     Wmnij          ...complete
     <ij||ab> -> T2 ...complete
     F -> T2        ...complete
     Wmnij -> T2    ...complete
     *** Processed 2130602 SO integrals for <ab||cd> --> T2
     <ab||cd> -> T2 ...complete
     Z -> T2        ...complete
     <ia||bc> -> T2 ...complete
     <ij||ka> -> T2 ...complete
     Wmbej -> T2    ...complete
     <ia||jb> -> T2 ...complete
     T2 amplitudes  ...complete
     3        -0.731249937861891    1.464e-02    0.013768    0.047460    0.047460    0.177183
     F intermediates...complete
     T1 amplitudes  ...complete
     Wmbej          ...complete
     Z              ...complete
     Wmnij          ...complete
     <ij||ab> -> T2 ...complete
     F -> T2        ...complete
     Wmnij -> T2    ...complete
     *** Processed 2130602 SO integrals for <ab||cd> --> T2
     <ab||cd> -> T2 ...complete
     Z -> T2        ...complete
     <ia||bc> -> T2 ...complete
     <ij||ka> -> T2 ...complete
     Wmbej -> T2    ...complete
     <ia||jb> -> T2 ...complete
     T2 amplitudes  ...complete
     4        -0.731241876308205    4.304e-03    0.014218    0.049385    0.049385    0.178668
     F intermediates...complete
     T1 amplitudes  ...complete
     Wmbej          ...complete
     Z              ...complete
     Wmnij          ...complete
     <ij||ab> -> T2 ...complete
     F -> T2        ...complete
     Wmnij -> T2    ...complete
     *** Processed 2130602 SO integrals for <ab||cd> --> T2
     <ab||cd> -> T2 ...complete
     Z -> T2        ...complete
     <ia||bc> -> T2 ...complete
     <ij||ka> -> T2 ...complete
     Wmbej -> T2    ...complete
     <ia||jb> -> T2 ...complete
     T2 amplitudes  ...complete
     5        -0.731400658289735    2.091e-03    0.014546    0.051114    0.051114    0.179524
     F intermediates...complete
     T1 amplitudes  ...complete
     Wmbej          ...complete
     Z              ...complete
     Wmnij          ...complete
     <ij||ab> -> T2 ...complete
     F -> T2        ...complete
     Wmnij -> T2    ...complete
     *** Processed 2130602 SO integrals for <ab||cd> --> T2
     <ab||cd> -> T2 ...complete
     Z -> T2        ...complete
     <ia||bc> -> T2 ...complete
     <ij||ka> -> T2 ...complete
     Wmbej -> T2    ...complete
     <ia||jb> -> T2 ...complete
     T2 amplitudes  ...complete
     6        -0.731409598005417    7.122e-04    0.014645    0.051663    0.051663    0.179592
     F intermediates...complete
     T1 amplitudes  ...complete
     Wmbej          ...complete
     Z              ...complete
     Wmnij          ...complete
     <ij||ab> -> T2 ...complete
     F -> T2        ...complete
     Wmnij -> T2    ...complete
     *** Processed 2130602 SO integrals for <ab||cd> --> T2
     <ab||cd> -> T2 ...complete
     Z -> T2        ...complete
     <ia||bc> -> T2 ...complete
     <ij||ka> -> T2 ...complete
     Wmbej -> T2    ...complete
     <ia||jb> -> T2 ...complete
     T2 amplitudes  ...complete
     7        -0.731391933959297    3.585e-04    0.014688    0.051896    0.051896    0.179553
     F intermediates...complete
     T1 amplitudes  ...complete
     Wmbej          ...complete
     Z              ...complete
     Wmnij          ...complete
     <ij||ab> -> T2 ...complete
     F -> T2        ...complete
     Wmnij -> T2    ...complete
     *** Processed 2130602 SO integrals for <ab||cd> --> T2
     <ab||cd> -> T2 ...complete
     Z -> T2        ...complete
     <ia||bc> -> T2 ...complete
     <ij||ka> -> T2 ...complete
     Wmbej -> T2    ...complete
     <ia||jb> -> T2 ...complete
     T2 amplitudes  ...complete
     8        -0.731388540019718    1.311e-04    0.014704    0.051984    0.051984    0.179520
     F intermediates...complete
     T1 amplitudes  ...complete
     Wmbej          ...complete
     Z              ...complete
     Wmnij          ...complete
     <ij||ab> -> T2 ...complete
     F -> T2        ...complete
     Wmnij -> T2    ...complete
     *** Processed 2130602 SO integrals for <ab||cd> --> T2
     <ab||cd> -> T2 ...complete
     Z -> T2        ...complete
     <ia||bc> -> T2 ...complete
     <ij||ka> -> T2 ...complete
     Wmbej -> T2    ...complete
     <ia||jb> -> T2 ...complete
     T2 amplitudes  ...complete
     9        -0.731391056614036    4.962e-05    0.014708    0.052005    0.052005    0.179508
     F intermediates...complete
     T1 amplitudes  ...complete
     Wmbej          ...complete
     Z              ...complete
     Wmnij          ...complete
     <ij||ab> -> T2 ...complete
     F -> T2        ...complete
     Wmnij -> T2    ...complete
     *** Processed 2130602 SO integrals for <ab||cd> --> T2
     <ab||cd> -> T2 ...complete
     Z -> T2        ...complete
     <ia||bc> -> T2 ...complete
     <ij||ka> -> T2 ...complete
     Wmbej -> T2    ...complete
     <ia||jb> -> T2 ...complete
     T2 amplitudes  ...complete
    10        -0.731387681905587    1.935e-05    0.014710    0.052012    0.052012    0.179501
     F intermediates...complete
     T1 amplitudes  ...complete
     Wmbej          ...complete
     Z              ...complete
     Wmnij          ...complete
     <ij||ab> -> T2 ...complete
     F -> T2        ...complete
     Wmnij -> T2    ...complete
     *** Processed 2130602 SO integrals for <ab||cd> --> T2
     <ab||cd> -> T2 ...complete
     Z -> T2        ...complete
     <ia||bc> -> T2 ...complete
     <ij||ka> -> T2 ...complete
     Wmbej -> T2    ...complete
     <ia||jb> -> T2 ...complete
     T2 amplitudes  ...complete
    11        -0.731388379690125    5.875e-06    0.014709    0.052010    0.052010    0.179501
     F intermediates...complete
     T1 amplitudes  ...complete
     Wmbej          ...complete
     Z              ...complete
     Wmnij          ...complete
     <ij||ab> -> T2 ...complete
     F -> T2        ...complete
     Wmnij -> T2    ...complete
     *** Processed 2130602 SO integrals for <ab||cd> --> T2
     <ab||cd> -> T2 ...complete
     Z -> T2        ...complete
     <ia||bc> -> T2 ...complete
     <ij||ka> -> T2 ...complete
     Wmbej -> T2    ...complete
     <ia||jb> -> T2 ...complete
     T2 amplitudes  ...complete
    12        -0.731388064252809    2.463e-06    0.014709    0.052010    0.052010    0.179501
     F intermediates...complete
     T1 amplitudes  ...complete
     Wmbej          ...complete
     Z              ...complete
     Wmnij          ...complete
     <ij||ab> -> T2 ...complete
     F -> T2        ...complete
     Wmnij -> T2    ...complete
     *** Processed 2130602 SO integrals for <ab||cd> --> T2
     <ab||cd> -> T2 ...complete
     Z -> T2        ...complete
     <ia||bc> -> T2 ...complete
     <ij||ka> -> T2 ...complete
     Wmbej -> T2    ...complete
     <ia||jb> -> T2 ...complete
     T2 amplitudes  ...complete
    13        -0.731388074593999    8.135e-07    0.014709    0.052010    0.052010    0.179501
     F intermediates...complete
     T1 amplitudes  ...complete
     Wmbej          ...complete
     Z              ...complete
     Wmnij          ...complete
     <ij||ab> -> T2 ...complete
     F -> T2        ...complete
     Wmnij -> T2    ...complete
     *** Processed 2130602 SO integrals for <ab||cd> --> T2
     <ab||cd> -> T2 ...complete
     Z -> T2        ...complete
     <ia||bc> -> T2 ...complete
     <ij||ka> -> T2 ...complete
     Wmbej -> T2    ...complete
     <ia||jb> -> T2 ...complete
     T2 amplitudes  ...complete
    14        -0.731388089367086    2.841e-07    0.014709    0.052010    0.052010    0.179501
     F intermediates...complete
     T1 amplitudes  ...complete
     Wmbej          ...complete
     Z              ...complete
     Wmnij          ...complete
     <ij||ab> -> T2 ...complete
     F -> T2        ...complete
     Wmnij -> T2    ...complete
     *** Processed 2130602 SO integrals for <ab||cd> --> T2
     <ab||cd> -> T2 ...complete
     Z -> T2        ...complete
     <ia||bc> -> T2 ...complete
     <ij||ka> -> T2 ...complete
     Wmbej -> T2    ...complete
     <ia||jb> -> T2 ...complete
     T2 amplitudes  ...complete
    15        -0.731388087437192    1.219e-07    0.014709    0.052010    0.052010    0.179501
     F intermediates...complete
     T1 amplitudes  ...complete
     Wmbej          ...complete
     Z              ...complete
     Wmnij          ...complete
     <ij||ab> -> T2 ...complete
     F -> T2        ...complete
     Wmnij -> T2    ...complete
     *** Processed 2130602 SO integrals for <ab||cd> --> T2
     <ab||cd> -> T2 ...complete
     Z -> T2        ...complete
     <ia||bc> -> T2 ...complete
     <ij||ka> -> T2 ...complete
     Wmbej -> T2    ...complete
     <ia||jb> -> T2 ...complete
     T2 amplitudes  ...complete
    16        -0.731388087863927    4.555e-08    0.014709    0.052009    0.052009    0.179501

    Iterations converged.


    Largest TIA Amplitudes:
             11  58         0.0378366778
             12  57        -0.0310501169
             11  57         0.0188491525
             11  60         0.0147727496
              9  43         0.0118923725
              9  45         0.0113062614
              8  38         0.0109832398
              4   3         0.0108100637
             12  61        -0.0096911443
              9  42         0.0092807996

    Largest TIjAb Amplitudes:
     12  12  58  58        -0.0542254400
      9   9  38  38        -0.0531091091
     11  11  58  58        -0.0461025002
      8   8  38  38        -0.0323997294
      5   5  39  39        -0.0317585519
      9   9  37  38        -0.0313061377
      9   9  38  37        -0.0313061377
      9  12  38  58         0.0243891135
     12   9  58  38         0.0243891135
      5   5  38  39         0.0236892504

    SCF energy       (wfn)                    = -208.153697555164882
    Reference energy (file100)                = -208.153697555164797

    Opposite-spin MP2 correlation energy      =   -0.519297795287860
    Same-spin MP2 correlation energy          =   -0.184080453030590
    MP2 correlation energy                    =   -0.703378248318453
      * MP2 total energy                      = -208.857075803483241

    Opposite-spin CCSD correlation energy     =   -0.570648785887867
    Same-spin CCSD correlation energy         =   -0.160739301140811
    CCSD correlation energy                   =   -0.731388087863927
      * CCSD total energy                     = -208.885085643028731


*** tstop() called on ds1.sherrill.chemistry.gatech.edu at Mon Apr  4 10:22:50 2016
Module time:
	user time   =       9.78 seconds =       0.16 minutes
	system time =       0.95 seconds =       0.02 minutes
	total time  =         11 seconds =       0.18 minutes
Total time:
	user time   =      11.88 seconds =       0.20 minutes
	system time =       1.47 seconds =       0.02 minutes
	total time  =         14 seconds =       0.23 minutes

*** tstart() called on ds1.sherrill.chemistry.gatech.edu
*** at Mon Apr  4 10:22:50 2016

            **************************
            *                        *
            *        CCTRIPLES       *
            *                        *
            **************************


    Wave function   =    CCSD_T
    Reference wfn   =      RHF

    Nuclear Rep. energy (wfn)                =  135.092128488419604
    SCF energy          (wfn)                = -208.153697555164882
    Reference energy    (file100)            = -208.153697555164797
    CCSD energy         (file100)            =   -0.731388087863927
    Total CCSD energy   (file100)            = -208.885085643028731

    Number of ijk index combinations:              455
    Memory available in words        :       125000000
    ~Words needed per explicit thread:           70304
    Number of threads for explicit ijk threading:    1

    (T) energy                                =   -0.030675386644020
      * CCSD(T) total energy                  = -208.915761029672751


*** tstop() called on ds1.sherrill.chemistry.gatech.edu at Mon Apr  4 10:22:53 2016
Module time:
	user time   =      14.99 seconds =       0.25 minutes
	system time =       0.75 seconds =       0.01 minutes
	total time  =          3 seconds =       0.05 minutes
Total time:
	user time   =      26.87 seconds =       0.45 minutes
	system time =       2.22 seconds =       0.04 minutes
	total time  =         17 seconds =       0.28 minutes
	Nuclear repulsion energy..........................................PASSED
	SCF energy........................................................PASSED
	CCSD energy.......................................................PASSED
	CCSD(T) energy....................................................PASSED

*** PSI4 exiting successfully. Buy a developer a beer!
