
    -----------------------------------------------------------------------
          Psi4: An Open-Source Ab Initio Electronic Structure Package
                               Psi4 undefined 

                         Git: Rev {dft_hess} 6f0a86f dirty


    R. M. Parrish, L. A. Burns, D. G. A. Smith, A. C. Simmonett,
    A. E. DePrince III, E. G. Hohenstein, U. Bozkaya, A. Yu. Sokolov,
    R. Di Remigio, R. M. Richard, J. F. Gonthier, A. M. James,
    H. R. McAlexander, A. Kumar, M. Saitow, X. Wang, B. P. Pritchard,
    P. Verma, H. F. Schaefer III, K. Patkowski, R. A. King, E. F. Valeev,
    F. A. Evangelista, J. M. Turney, T. D. Crawford, and C. D. Sherrill,
    J. Chem. Theory Comput. 13(7) pp 3185--3197 (2017).
    (doi: 10.1021/acs.jctc.7b00174)

    -----------------------------------------------------------------------


    Psi4 started on: Thursday, 09 November 2017 09:53AM

    Process ID:  49469
    PSIDATADIR: /Users/andysim/programming/psi4/obj_opt/stage/usr/local/psi4/share/psi4
    Memory:     500.0 MiB
    Threads:    1
    
  ==> Input File <==

--------------------------------------------------------------------------
#! Tests CCENERGY's CCSD gradient in the presence of a dipole field

molecule h2o {
  0 1
  O    0.000000000000     0.000000000000    -0.071143036192 
  H    0.000000000000    -0.758215806856     0.564545805801 
  H    0.000000000000     0.758215806856     0.564545805801 
}

set {
    basis cc-pvdz
    d_convergence   10
}

set perturb_h true
set perturb_with dipole
set perturb_dipole [0, 0, -0.05]
set e_convergence 10
set d_convergence 10
set r_convergence 10
analytic = gradient('ccsd')
set findif points 5
findif = gradient('ccsd', dertype=0)

compare_matrices(analytic, findif, 7, "Perturbed CCSD finite-diff (5-pt) vs. analytic gradient to 10^-7") #TEST
--------------------------------------------------------------------------
gradient() will perform analytic gradient computation.

*** tstart() called on QuickSilver.local
*** at Thu Nov  9 09:53:58 2017

   => Loading Basis Set <=

    Name: CC-PVDZ
    Role: ORBITAL
    Keyword: BASIS
    atoms 1   entry O          line   198 file /Users/andysim/programming/psi4/obj_opt/stage/usr/local/psi4/share/psi4/basis/cc-pvdz.gbs 
    atoms 2-3 entry H          line    22 file /Users/andysim/programming/psi4/obj_opt/stage/usr/local/psi4/share/psi4/basis/cc-pvdz.gbs 


         ---------------------------------------------------------
                                   SCF
            by Justin Turney, Rob Parrish, Andy Simmonett
                             and Daniel Smith
                              RHF Reference
                        1 Threads,    500 MiB Core
         ---------------------------------------------------------

  ==> Geometry <==

    Molecular point group: c2v
    Full point group: C2v

    Geometry (in Angstrom), charge = 0, multiplicity = 1:

       Center              X                  Y                   Z               Mass       
    ------------   -----------------  -----------------  -----------------  -----------------
           O          0.000000000000     0.000000000000    -0.071143036192    15.994914619560
           H          0.000000000000    -0.758215806856     0.564545805801     1.007825032070
           H         -0.000000000000     0.758215806856     0.564545805801     1.007825032070

  Running in c2v symmetry.

  Rotational constants: A =     23.30438  B =     14.54775  C =      8.95660 [cm^-1]
  Rotational constants: A = 698647.78356  B = 436130.43148  C = 268511.99226 [MHz]
  Nuclear repulsion =    8.853254140090618

  Charge       = 0
  Multiplicity = 1
  Electrons    = 10
  Nalpha       = 5
  Nbeta        = 5

  ==> Algorithm <==

  SCF Algorithm Type is PK.
  DIIS enabled.
  MOM disabled.
  Fractional occupation disabled.
  Guess Type is SAD.
  Energy threshold   = 1.00e-10
  Density threshold  = 1.00e-10
  Integral threshold = 0.00e+00

  ==> Primary Basis <==

  Basis Set: CC-PVDZ
    Blend: CC-PVDZ
    Number of shells: 12
    Number of basis function: 24
    Number of Cartesian functions: 25
    Spherical Harmonics?: true
    Max angular momentum: 2

  ==> Pre-Iterations <==

   -------------------------------------------------------
    Irrep   Nso     Nmo     Nalpha   Nbeta   Ndocc  Nsocc
   -------------------------------------------------------
     A1        11      11       0       0       0       0
     A2         2       2       0       0       0       0
     B1         4       4       0       0       0       0
     B2         7       7       0       0       0       0
   -------------------------------------------------------
    Total      24      24       5       5       5       0
   -------------------------------------------------------

  Perturbing V by -0.050000 mu(z).
  ==> Integral Setup <==

  Using in-core PK algorithm.
   Calculation information:
      Number of atoms:                   3
      Number of AO shells:              12
      Number of primitives:             32
      Number of atomic orbitals:        25
      Number of basis functions:        24

      Integral cutoff                 1.00e-12
      Number of threads:                 1

  Performing in-core PK
  Using 90300 doubles for integral storage.
  We computed 3081 shell quartets total.
  Whereas there are 3081 unique shell quartets.
  ==> DiskJK: Disk-Based J/K Matrices <==

    J tasked:                  Yes
    K tasked:                  Yes
    wK tasked:                  No
    Memory (MB):               375
    Schwarz Cutoff:          1E-12

    OpenMP threads:              1
  Minimum eigenvalue in the overlap matrix is 3.5867903161E-02.
  Using Symmetric Orthogonalization.

  SCF Guess: Superposition of Atomic Densities via on-the-fly atomic UHF.

  ==> Iterations <==

                        Total Energy        Delta E     RMS |[F,P]|

   @RHF iter   0:   -75.88250083710099   -7.58825e+01   1.16012e-01 
   @RHF iter   1:   -76.02794001746167   -1.45439e-01   2.38463e-02 
   @RHF iter   2:   -76.06201085970559   -3.40708e-02   1.23933e-02 DIIS
   @RHF iter   3:   -76.07197383265823   -9.96297e-03   1.48484e-03 DIIS
   @RHF iter   4:   -76.07224436998841   -2.70537e-04   4.00557e-04 DIIS
   @RHF iter   5:   -76.07227155085963   -2.71809e-05   6.52785e-05 DIIS
   @RHF iter   6:   -76.07227243927046   -8.88411e-07   1.02158e-05 DIIS
   @RHF iter   7:   -76.07227246118660   -2.19161e-08   1.31708e-06 DIIS
   @RHF iter   8:   -76.07227246159306   -4.06459e-10   2.90533e-07 DIIS
   @RHF iter   9:   -76.07227246161473   -2.16716e-11   2.93430e-08 DIIS
   @RHF iter  10:   -76.07227246161496   -2.27374e-13   2.25678e-09 DIIS
   @RHF iter  11:   -76.07227246161487    8.52651e-14   2.27972e-10 DIIS
   @RHF iter  12:   -76.07227246161492   -4.26326e-14   1.66240e-11 DIIS

  ==> Post-Iterations <==

    Orbital Energies (a.u.)
    -----------------------

    Doubly Occupied:                                                      

       1A1   -20.538075     2A1    -1.305610     1B2    -0.656412  
       3A1    -0.565879     1B1    -0.479419  

    Virtual:                                                              

       4A1     0.240363     2B2     0.314003     3B2     0.781081  
       5A1     0.888717     6A1     1.168927     2B1     1.207922  
       4B2     1.265103     7A1     1.424394     1A2     1.523356  
       3B1     1.674612     8A1     1.886461     5B2     1.962443  
       6B2     2.407457     9A1     2.458288     4B1     3.292254  
       2A2     3.305647    10A1     3.489975    11A1     3.822828  
       7B2     4.144043  

    Final Occupation by Irrep:
             A1    A2    B1    B2 
    DOCC [     3,    0,    1,    1 ]

  Energy converged.

  @RHF Final Energy:   -76.07227246161492 with 0.000000 0.000000 -0.050000 perturbation

   => Energetics <=

    Nuclear Repulsion Energy =              8.8532541400906180
    One-Electron Energy =                -122.7602632887131762
    Two-Electron Energy =                  37.8347366870076485
    PCM Polarization Energy =               0.0000000000000000
    Total Energy =                        -76.0722724616149151

    Alert: EFP and PCM quantities not currently incorporated into SCF psivars.

Properties will be evaluated at   0.000000,   0.000000,   0.000000 Bohr

Properties computed using the SCF density matrix

  Nuclear Dipole Moment: (a.u.)
     X:     0.0000      Y:     0.0000      Z:     1.0581

  Electronic Dipole Moment: (a.u.)
     X:     0.0000      Y:     0.0000      Z:     0.0562

  Dipole Moment: (a.u.)
     X:     0.0000      Y:     0.0000      Z:     1.1144     Total:     1.1144

  Dipole Moment: (Debye)
     X:     0.0000      Y:     0.0000      Z:     2.8325     Total:     2.8325


*** tstop() called on QuickSilver.local at Thu Nov  9 09:53:58 2017
Module time:
	user time   =       0.43 seconds =       0.01 minutes
	system time =       0.02 seconds =       0.00 minutes
	total time  =          0 seconds =       0.00 minutes
Total time:
	user time   =       0.43 seconds =       0.01 minutes
	system time =       0.02 seconds =       0.00 minutes
	total time  =          0 seconds =       0.00 minutes
 MINTS: Wrapper to libmints.
   by Justin Turney

   Calculation information:
      Number of threads:                 1
      Number of atoms:                   3
      Number of AO shells:              12
      Number of SO shells:               9
      Number of primitives:             32
      Number of atomic orbitals:        25
      Number of basis functions:        24

      Number of irreps:                  4
      Integral cutoff                 0.00e+00
      Number of functions per irrep: [  11    2    4    7 ]

  Perturbing V by -0.050000 mu(z).
 OEINTS: Overlap, kinetic, potential, dipole, and quadrupole integrals
         stored in file 35.

      Computing two-electron integrals...done
      Computed 11550 non-zero two-electron integrals.
        Stored in file 33.


*** tstart() called on QuickSilver.local
*** at Thu Nov  9 09:53:58 2017


	Wfn Parameters:
	--------------------
	Wavefunction         = CCSD
	Number of irreps     = 4
	Number of MOs        = 24
	Number of active MOs = 24
	AO-Basis             = NONE
	Semicanonical        = false
	Reference            = RHF
	Print Level          = 1

	IRREP	# MOs	# FZDC	# DOCC	# SOCC	# VIRT	# FZVR
	-----	-----	------	------	------	------	------
	 A1	   11	    0	    3	    0	    8	    0
	 A2	   2	    0	    0	    0	    2	    0
	 B1	   4	    0	    1	    0	    3	    0
	 B2	   7	    0	    1	    0	    6	    0
	Transforming integrals...
	IWL integrals will be deleted.
	(OO|OO)...
	Presorting SO-basis two-electron integrals.
	Sorting File: SO Ints (nn|nn) nbuckets = 1
	Transforming the one-electron integrals and constructing Fock matrices
	Starting first half-transformation.
	Sorting half-transformed integrals.
	First half integral transformation complete.
	Starting second half-transformation.
	Two-electron integral transformation complete.
	(OO|OV)...
	Starting second half-transformation.
	Two-electron integral transformation complete.
	(OO|VV)...
	Starting second half-transformation.
	Two-electron integral transformation complete.
	(OV|OO)...
	Starting first half-transformation.
	Sorting half-transformed integrals.
	First half integral transformation complete.
	Starting second half-transformation.
	Two-electron integral transformation complete.
	(OV|OV)...
	Starting second half-transformation.
	Two-electron integral transformation complete.
	(OV|VV)...
	Starting second half-transformation.
	Two-electron integral transformation complete.
	(VV|OO)...
	Starting first half-transformation.
	Sorting half-transformed integrals.
	First half integral transformation complete.
	Starting second half-transformation.
	Two-electron integral transformation complete.
	(VV|OV)...
	Starting second half-transformation.
	Two-electron integral transformation complete.
	(VV|VV)...
	Starting second half-transformation.
	Two-electron integral transformation complete.
	Frozen core energy     =      0.00000000000000

	Size of irrep 0 of <ab|cd> integrals:      0.013 (MW) /      0.102 (MB)
	Size of irrep 1 of <ab|cd> integrals:      0.005 (MW) /      0.037 (MB)
	Size of irrep 2 of <ab|cd> integrals:      0.005 (MW) /      0.041 (MB)
	Size of irrep 3 of <ab|cd> integrals:      0.012 (MW) /      0.093 (MB)
	Total:                                     0.034 (MW) /      0.274 (MB)

	Size of irrep 0 of <ia|bc> integrals:      0.004 (MW) /      0.030 (MB)
	Size of irrep 1 of <ia|bc> integrals:      0.001 (MW) /      0.008 (MB)
	Size of irrep 2 of <ia|bc> integrals:      0.001 (MW) /      0.011 (MB)
	Size of irrep 3 of <ia|bc> integrals:      0.003 (MW) /      0.024 (MB)
	Total:                                     0.009 (MW) /      0.073 (MB)

	Size of irrep 0 of tijab amplitudes:       0.001 (MW) /      0.010 (MB)
	Size of irrep 1 of tijab amplitudes:       0.000 (MW) /      0.001 (MB)
	Size of irrep 2 of tijab amplitudes:       0.000 (MW) /      0.003 (MB)
	Size of irrep 3 of tijab amplitudes:       0.001 (MW) /      0.005 (MB)
	Total:                                     0.002 (MW) /      0.020 (MB)

	Nuclear Rep. energy          =      8.85325414009062
	SCF energy                   =    -76.07227246161492
	One-electron energy          =   -122.76026328872211
	Two-electron energy          =     37.83473668701663
	Reference energy             =    -76.07227246161487

*** tstop() called on QuickSilver.local at Thu Nov  9 09:53:59 2017
Module time:
	user time   =       0.02 seconds =       0.00 minutes
	system time =       0.07 seconds =       0.00 minutes
	total time  =          1 seconds =       0.02 minutes
Total time:
	user time   =       0.48 seconds =       0.01 minutes
	system time =       0.09 seconds =       0.00 minutes
	total time  =          1 seconds =       0.02 minutes

*** tstart() called on QuickSilver.local
*** at Thu Nov  9 09:53:59 2017

            **************************
            *                        *
            *        CCENERGY        *
            *                        *
            **************************

    Nuclear Rep. energy (wfn)     =    8.853254140090618
    SCF energy          (wfn)     =  -76.072272461614915
    Reference energy    (file100) =  -76.072272461614872

    Input parameters:
    -----------------
    Wave function   =     CCSD
    Reference wfn   =     RHF
    Brueckner       =     No
    Memory (Mbytes) =     524.3
    Maxiter         =     50
    R_Convergence   =     1.0e-10
    E_Convergence   =     1.0e-10
    Restart         =     Yes
    DIIS            =     Yes
    AO Basis        =     NONE
    ABCD            =     NEW
    Cache Level     =     2
    Cache Type      =     LOW
    Print Level     =     1
    Num. of threads =     1
    # Amps to Print =     10
    Print MP2 Amps? =     No
    Analyze T2 Amps =     No
    Print Pair Ener =     No
    Local CC        =     No
    SCS-MP2         =     False
    SCSN-MP2        =     False
    SCS-CCSD        =     False

MP2 correlation energy -0.2046792078520860
                Solving CC Amplitude Equations
                ------------------------------
  Iter             Energy              RMS        T1Diag      D1Diag    New D1Diag    D2Diag
  ----     ---------------------    ---------   ----------  ----------  ----------   --------
     0        -0.204679207852086    0.000e+00    0.000000    0.000000    0.000000    0.110355
     1        -0.209144684634420    2.652e-02    0.004002    0.008921    0.008921    0.117103
     2        -0.213140723621587    9.543e-03    0.004787    0.010422    0.010422    0.122656
     3        -0.213554953236556    2.428e-03    0.005215    0.011312    0.011312    0.123938
     4        -0.213572801831473    5.223e-04    0.005245    0.011354    0.011354    0.124147
     5        -0.213583966381100    1.258e-04    0.005257    0.011365    0.011365    0.124183
     6        -0.213583355924853    3.491e-05    0.005259    0.011362    0.011362    0.124181
     7        -0.213583346622143    9.590e-06    0.005260    0.011360    0.011360    0.124180
     8        -0.213583265033671    1.997e-06    0.005260    0.011360    0.011360    0.124180
     9        -0.213583228073136    5.033e-07    0.005260    0.011360    0.011360    0.124180
    10        -0.213583239028383    9.438e-08    0.005260    0.011360    0.011360    0.124180
    11        -0.213583237679166    2.173e-08    0.005260    0.011360    0.011360    0.124180
    12        -0.213583237955430    3.425e-09    0.005260    0.011360    0.011360    0.124180
    13        -0.213583237866051    7.104e-10    0.005260    0.011360    0.011360    0.124180
    14        -0.213583237858917    1.296e-10    0.005260    0.011360    0.011360    0.124180
    15        -0.213583237857047    3.832e-11    0.005260    0.011360    0.011360    0.124180

    Iterations converged.


    Largest TIA Amplitudes:
              4  17         0.0072052288
              4  13        -0.0063630778
              2   0         0.0056314689
              4  15         0.0051183956
              1   0        -0.0049925853
              2   5         0.0049705268
              1   2         0.0038854322
              2   1        -0.0035874876
              4  14        -0.0032294071
              3  11         0.0032247396

    Largest TIjAb Amplitudes:
      3   3  10  10        -0.0518452397
      2   2   2   2        -0.0348493777
      4   4  14  14        -0.0341353449
      4   4  13  13        -0.0316737708
      2   3   2  10         0.0286304282
      3   2  10   2         0.0286304282
      4   4   1   1        -0.0245932375
      2   2  14  14        -0.0244275127
      3   4  10  15        -0.0240363824
      4   3  15  10        -0.0240363824

    SCF energy       (wfn)                    =  -76.072272461614915
    Reference energy (file100)                =  -76.072272461614872

    Opposite-spin MP2 correlation energy      =   -0.152843322018956
    Same-spin MP2 correlation energy          =   -0.051835885833130
    MP2 correlation energy                    =   -0.204679207852086
      * MP2 total energy                      =  -76.276951669466953

    Opposite-spin CCSD correlation energy     =   -0.167532510169624
    Same-spin CCSD correlation energy         =   -0.046050727687347
    CCSD correlation energy                   =   -0.213583237857047
      * CCSD total energy                     =  -76.285855699471924


*** tstop() called on QuickSilver.local at Thu Nov  9 09:54:02 2017
Module time:
	user time   =       0.13 seconds =       0.00 minutes
	system time =       0.59 seconds =       0.01 minutes
	total time  =          3 seconds =       0.05 minutes
Total time:
	user time   =       0.61 seconds =       0.01 minutes
	system time =       0.68 seconds =       0.01 minutes
	total time  =          4 seconds =       0.07 minutes

*** tstart() called on QuickSilver.local
*** at Thu Nov  9 09:54:02 2017


			**************************
			*                        *
			*         CCHBAR         *
			*                        *
			**************************


*** tstop() called on QuickSilver.local at Thu Nov  9 09:54:02 2017
Module time:
	user time   =       0.01 seconds =       0.00 minutes
	system time =       0.04 seconds =       0.00 minutes
	total time  =          0 seconds =       0.00 minutes
Total time:
	user time   =       0.62 seconds =       0.01 minutes
	system time =       0.72 seconds =       0.01 minutes
	total time  =          4 seconds =       0.07 minutes

*** tstart() called on QuickSilver.local
*** at Thu Nov  9 09:54:02 2017


			**************************
			*        CCLAMBDA        *
			**************************


	Nuclear Rep. energy (wfn)     =    8.853254140090618
	Reference           (wfn)     =                    0
	SCF energy          (wfn)     =  -76.072272461614915
	Reference energy    (CC_INFO) =  -76.072272461614872
	CCSD energy         (CC_INFO) =   -0.213583237857047
	Total CCSD energy   (CC_INFO) =  -76.285855699471924

	Input parameters:
	-----------------
	Maxiter           =     50
	Convergence       = 1.0e-10
	Restart           =     No
	Cache Level       =     2
	Model III         =     No
	DIIS              =     Yes
	AO Basis          =     No
	ABCD              =     NEW
	Local CC          =     No
	Paramaters for left-handed eigenvectors:
	    Irr   Root  Ground-State?    EOM energy        R0
	  1   0     0        Yes       0.0000000000   1.0000000000
	Labels for eigenvector 1:
	LIA 0 -1, Lia 0 -1, LIJAB 0 -1, Lijab 0 -1, LIjAb 0 -1, 2LIjAb - LIjbA 0 -1
	Symmetry of left-hand state: A1
	Symmetry of left-hand eigenvector: A1

	          Solving Lambda Equations
	          ------------------------
	Iter     PseudoEnergy or Norm         RMS  
	----     ---------------------     --------
	   0        -0.213600690679524    0.000e+00
	   1        -0.211015800206031    5.326e-03
	   2        -0.210636802001518    1.085e-03
	   3        -0.210576957068808    3.740e-04
	   4        -0.210572716970047    9.927e-05
	   5        -0.210573668274281    3.134e-05
	   6        -0.210573446436148    7.974e-06
	   7        -0.210573533449752    2.194e-06
	   8        -0.210573559523702    3.807e-07
	   9        -0.210573561470377    6.862e-08
	  10        -0.210573561279246    1.353e-08
	  11        -0.210573561314635    2.894e-09
	  12        -0.210573561331956    5.413e-10
	  13        -0.210573561332124    1.053e-10
	  14        -0.210573561331906    2.321e-11

	Largest LIA Amplitudes:
	          4  17         0.0060362047
	          4  15         0.0047063716
	          4  13        -0.0042962046
	          2   0         0.0041594652
	          2   5         0.0041118559
	          1   0        -0.0038826291
	          2   1        -0.0033296232
	          4  14        -0.0033182901
	          1   2         0.0032338110
	          3  11         0.0023416293

	Largest LIjAb Amplitudes:
	  3   3  10  10        -0.0516306917
	  2   2   2   2        -0.0345338654
	  4   4  14  14        -0.0333172259
	  4   4  13  13        -0.0309821605
	  2   3   2  10         0.0285157761
	  3   2  10   2         0.0285157761
	  4   4   1   1        -0.0238831566
	  3   4  10  15        -0.0238461351
	  4   3  15  10        -0.0238461351
	  2   2  14  14        -0.0237584251

	Iterations converged.

	Overlap <L|e^T> =        0.94372621239

*** tstop() called on QuickSilver.local at Thu Nov  9 09:54:02 2017
Module time:
	user time   =       0.04 seconds =       0.00 minutes
	system time =       0.07 seconds =       0.00 minutes
	total time  =          0 seconds =       0.00 minutes
Total time:
	user time   =       0.66 seconds =       0.01 minutes
	system time =       0.79 seconds =       0.01 minutes
	total time  =          4 seconds =       0.07 minutes

*** tstart() called on QuickSilver.local
*** at Thu Nov  9 09:54:02 2017


			**************************
			*                        *
			*        CCDENSITY       *
			*                        *
			**************************


	Input parameters:
	-----------------
	Wave function    =   CCSD
	Reference wfn    =   RHF
	Dertype          = 1
	Tolerance        = 1.0e-14
	Cache Level      = 2
	AO Basis         = No
	OPDM Only        = No
	Relax OPDM       = Yes
	Compute Xi       = No
	Use Zeta         = No
	Xi connected     = Yes
	Compute NO       = No

	Nuclear Rep. energy (wfn)     =    8.853254140090618
	SCF energy          (wfn)     =  -76.072272461614915
	Reference energy    (file100) =  -76.072272461614872
	CCSD energy         (CC_INFO) =   -0.213583237857047
	Total CCSD energy   (CC_INFO) =  -76.285855699471924
	Number of States = 1

	Ground?  State     EOM Energy       R0
	  Yes     0 A1    0.0000000000   1.00000000

	Virial Theorem Data:
	--------------------
	Kinetic energy (ref)   =   75.849469572938631
	Kinetic energy (corr)  =    0.189518998105685
	Kinetic energy (total) =   76.038988571044314
	-V/T (ref)             =    2.002937435026649
	-V/T (corr)            =    2.126975342798840
	-V/T (total)           =    2.003246586166739


Properties will be evaluated at   0.000000,   0.000000,   0.000000 Bohr

Properties computed using the CC density matrix

  Nuclear Dipole Moment: (a.u.)
     X:     0.0000      Y:     0.0000      Z:     1.0581

  Electronic Dipole Moment: (a.u.)
     X:     0.0000      Y:     0.0000      Z:     0.0105

  Dipole Moment: (a.u.)
     X:     0.0000      Y:     0.0000      Z:     1.0687     Total:     1.0687

  Dipole Moment: (Debye)
     X:     0.0000      Y:     0.0000      Z:     2.7162     Total:     2.7162

  Quadrupole Moment: (Debye Ang)
    XX:    -7.1565     YY:    -4.1216     ZZ:    -5.4199
    XY:    -0.0000     XZ:     0.0000     YZ:     0.0000

  Traceless Quadrupole Moment: (Debye Ang)
    XX:    -1.5905     YY:     1.4444     ZZ:     0.1461
    XY:    -0.0000     XZ:     0.0000     YZ:     0.0000

  Mulliken Charges: (a.u.)
   Center  Symbol    Alpha    Beta     Spin     Total
       1     O     4.21880  4.21880  0.00000 -0.43760
       2     H     0.39060  0.39060  0.00000  0.21880
       3     H     0.39060  0.39060  0.00000  0.21880

   Total alpha =  5.00000, Total beta =  5.00000, Total charge = -0.00000

  Natural Orbital Occupations:

  Total Occupations:
  HONO-2 :    1 B1    1.973
  HONO-1 :    3 A1    1.967
  HONO-0 :    1 B2    1.964
  LUNO+0 :    2 B2    0.027
  LUNO+1 :    4 A1    0.024
  LUNO+2 :    2 B1    0.017
  LUNO+3 :    5 A1    0.012


*** tstop() called on QuickSilver.local at Thu Nov  9 09:54:02 2017
Module time:
	user time   =       0.03 seconds =       0.00 minutes
	system time =       0.05 seconds =       0.00 minutes
	total time  =          0 seconds =       0.00 minutes
Total time:
	user time   =       0.69 seconds =       0.01 minutes
	system time =       0.84 seconds =       0.01 minutes
	total time  =          4 seconds =       0.07 minutes
  Cartesian Displacement SALCs
  By SALC:
  Number of SALCs: 3, nirreps: 1
  Project out translations: False
  Project out rotations: False
	irrep = 0, ncomponent = 1
		0: atom 0, direction z, coef 1.000000
	irrep = 0, ncomponent = 2
		0: atom 1, direction y, coef 0.707107
		1: atom 2, direction y, coef -0.707107
	irrep = 0, ncomponent = 2
		0: atom 1, direction z, coef 0.707107
		1: atom 2, direction z, coef 0.707107

  By Atomic Center:
  Number of atomic centers: 3
   Atomic Center 0:
	x component, size = 0
	y component, size = 0
	z component, size = 1
		0: salc 0, irrep 0, coef 1.000000
   Atomic Center 1:
	x component, size = 0
	y component, size = 1
		0: salc 1, irrep 0, coef 0.707107
	z component, size = 1
		0: salc 2, irrep 0, coef 0.707107
   Atomic Center 2:
	x component, size = 0
	y component, size = 1
		0: salc 1, irrep 0, coef -0.707107
	z component, size = 1
		0: salc 2, irrep 0, coef 0.707107

    Molecular point group: c2v
    Full point group: C2v

    Geometry (in Bohr), charge = 0, multiplicity = 1:

       Center              X                  Y                   Z       
    ------------   -----------------  -----------------  -----------------
           O          0.000000000000     0.000000000000    -0.134440854665
           H          0.000000000000    -1.432820224583     1.066836962433
           H         -0.000000000000     1.432820224583     1.066836962433

	Presorting MO-basis TPDM.
	Sorting File: MO TPDM (AA|AA) nbuckets = 1
	Starting first half-transformation.
	Sorting half-transformed TPDM.
	First half integral transformation complete.


  -Nuclear Repulsion Energy 1st Derivatives:
     Atom            X                  Y                   Z
    ------   -----------------  -----------------  -----------------
       1        0.000000000000     0.000000000000     2.540346029239
       2       -0.000000000000     1.875318669694    -1.520173014620
       3        0.000000000000    -1.875318669694    -1.520173014620


  -Core Hamiltonian Gradient:
     Atom            X                  Y                   Z
    ------   -----------------  -----------------  -----------------
       1        0.000000000000     0.000000000000    -7.238212829506
       2        0.000000000000    -4.622048159214     3.869106414753
       3       -0.000000000000     4.622048159214     3.869106414753


  -Lagrangian contribution to gradient:
     Atom            X                  Y                   Z
    ------   -----------------  -----------------  -----------------
       1        0.000000000000     0.000000000000     0.488774681528
       2       -0.000000000000     0.270775750664    -0.244387340764
       3        0.000000000000    -0.270775750664    -0.244387340764


  -Two-electron contribution to gradient:
     Atom            X                  Y                   Z
    ------   -----------------  -----------------  -----------------
       1        0.000000000000     0.000000000000     4.199231004951
       2       -0.000000000000     2.458129964008    -2.099615502475
       3        0.000000000000    -2.458129964008    -2.099615502475


  -Total gradient:
     Atom            X                  Y                   Z
    ------   -----------------  -----------------  -----------------
       1        0.000000000000     0.000000000000    -0.009861113788
       2        0.000000000000    -0.017823774847     0.004930556894
       3       -0.000000000000     0.017823774847     0.004930556894

gradient() will perform gradient computation by finite difference of analytic energies.

-------------------------------------------------------------

  Using finite-differences of energies to determine gradients (fd_geoms_1_0).
	Generating geometries for use with 5-point formula.
	Displacement size will be 5.00e-03.
	Number of atoms is 3.
	Number of symmetric SALC's is 3.
	Number of displacements (including reference) is 13.

-------------------------------------------------------------

  //>>>>>>>>>>>>>>>>>>>>>>>>>>>>>>>>>>>//
  //    Loading displacement 1 of 13   //
  //<<<<<<<<<<<<<<<<<<<<<<<<<<<<<<<<<<<//

*** tstart() called on QuickSilver.local
*** at Thu Nov  9 09:54:02 2017

   => Loading Basis Set <=

    Name: CC-PVDZ
    Role: ORBITAL
    Keyword: BASIS
    atoms 1   entry O          line   198 file /Users/andysim/programming/psi4/obj_opt/stage/usr/local/psi4/share/psi4/basis/cc-pvdz.gbs 
    atoms 2-3 entry H          line    22 file /Users/andysim/programming/psi4/obj_opt/stage/usr/local/psi4/share/psi4/basis/cc-pvdz.gbs 


         ---------------------------------------------------------
                                   SCF
            by Justin Turney, Rob Parrish, Andy Simmonett
                             and Daniel Smith
                              RHF Reference
                        1 Threads,    500 MiB Core
         ---------------------------------------------------------

  ==> Geometry <==

    Molecular point group: c2v
    Full point group: C2v

    Geometry (in Angstrom), charge = 0, multiplicity = 1:

       Center              X                  Y                   Z               Mass       
    ------------   -----------------  -----------------  -----------------  -----------------
           O          0.000000000000     0.000000000000    -0.071291116727    15.994914619560
           H          0.000000000000    -0.758215806856     0.565720878577     1.007825032070
           H         -0.000000000000     0.758215806856     0.565720878577     1.007825032070

  Running in c2v symmetry.

  Rotational constants: A =     23.20767  B =     14.54775  C =      8.94227 [cm^-1]
  Rotational constants: A = 695748.44078  B = 436130.43148  C = 268082.63244 [MHz]
  Nuclear repulsion =    8.845793812245574

  Charge       = 0
  Multiplicity = 1
  Electrons    = 10
  Nalpha       = 5
  Nbeta        = 5

  ==> Algorithm <==

  SCF Algorithm Type is PK.
  DIIS enabled.
  MOM disabled.
  Fractional occupation disabled.
  Guess Type is SAD.
  Energy threshold   = 1.00e-10
  Density threshold  = 1.00e-10
  Integral threshold = 0.00e+00

  ==> Primary Basis <==

  Basis Set: CC-PVDZ
    Blend: CC-PVDZ
    Number of shells: 12
    Number of basis function: 24
    Number of Cartesian functions: 25
    Spherical Harmonics?: true
    Max angular momentum: 2

  ==> Pre-Iterations <==

   -------------------------------------------------------
    Irrep   Nso     Nmo     Nalpha   Nbeta   Ndocc  Nsocc
   -------------------------------------------------------
     A1        11      11       0       0       0       0
     A2         2       2       0       0       0       0
     B1         4       4       0       0       0       0
     B2         7       7       0       0       0       0
   -------------------------------------------------------
    Total      24      24       5       5       5       0
   -------------------------------------------------------

  Perturbing V by -0.050000 mu(z).
  ==> Integral Setup <==

  Using in-core PK algorithm.
   Calculation information:
      Number of atoms:                   3
      Number of AO shells:              12
      Number of primitives:             32
      Number of atomic orbitals:        25
      Number of basis functions:        24

      Integral cutoff                 1.00e-12
      Number of threads:                 1

  Performing in-core PK
  Using 90300 doubles for integral storage.
  We computed 3081 shell quartets total.
  Whereas there are 3081 unique shell quartets.
  ==> DiskJK: Disk-Based J/K Matrices <==

    J tasked:                  Yes
    K tasked:                  Yes
    wK tasked:                  No
    Memory (MB):               375
    Schwarz Cutoff:          1E-12

    OpenMP threads:              1
  Minimum eigenvalue in the overlap matrix is 3.5913794013E-02.
  Using Symmetric Orthogonalization.

  SCF Guess: Superposition of Atomic Densities via on-the-fly atomic UHF.

  ==> Iterations <==

                        Total Energy        Delta E     RMS |[F,P]|

   @RHF iter   0:   -75.86902732997027   -7.58690e+01   1.15878e-01 
   @RHF iter   1:   -76.03501961411979   -1.65992e-01   2.22558e-02 
   @RHF iter   2:   -76.06350842732802   -2.84888e-02   1.14131e-02 DIIS
   @RHF iter   3:   -76.07199138555308   -8.48296e-03   1.27722e-03 DIIS
   @RHF iter   4:   -76.07216950561026   -1.78120e-04   3.04570e-04 DIIS
   @RHF iter   5:   -76.07218457646208   -1.50709e-05   5.58106e-05 DIIS
   @RHF iter   6:   -76.07218527580955   -6.99347e-07   9.65941e-06 DIIS
   @RHF iter   7:   -76.07218530062279   -2.48132e-08   1.15076e-06 DIIS
   @RHF iter   8:   -76.07218530093098   -3.08191e-10   2.32756e-07 DIIS
   @RHF iter   9:   -76.07218530094305   -1.20650e-11   2.70168e-08 DIIS
   @RHF iter  10:   -76.07218530094312   -7.10543e-14   2.83088e-09 DIIS
   @RHF iter  11:   -76.07218530094313   -1.42109e-14   3.06640e-10 DIIS
   @RHF iter  12:   -76.07218530094315   -1.42109e-14   3.59669e-11 DIIS

  ==> Post-Iterations <==

    Orbital Energies (a.u.)
    -----------------------

    Doubly Occupied:                                                      

       1A1   -20.538186     2A1    -1.305246     1B2    -0.655720  
       3A1    -0.565881     1B1    -0.479344  

    Virtual:                                                              

       4A1     0.240276     2B2     0.313933     3B2     0.780315  
       5A1     0.888518     6A1     1.169140     2B1     1.207925  
       4B2     1.265345     7A1     1.423422     1A2     1.523630  
       3B1     1.673927     8A1     1.886508     5B2     1.962273  
       6B2     2.405544     9A1     2.456579     4B1     3.292066  
       2A2     3.304513    10A1     3.488849    11A1     3.821688  
       7B2     4.143603  

    Final Occupation by Irrep:
             A1    A2    B1    B2 
    DOCC [     3,    0,    1,    1 ]

  Energy converged.

  @RHF Final Energy:   -76.07218530094315 with 0.000000 0.000000 -0.050000 perturbation

   => Energetics <=

    Nuclear Repulsion Energy =              8.8457938122455744
    One-Electron Energy =                -122.7472038868056359
    Two-Electron Energy =                  37.8292247736169145
    Total Energy =                        -76.0721853009431470



Properties will be evaluated at   0.000000,   0.000000,   0.000000 Bohr

Properties computed using the SCF density matrix

  Nuclear Dipole Moment: (a.u.)
     X:     0.0000      Y:     0.0000      Z:     1.0603

  Electronic Dipole Moment: (a.u.)
     X:     0.0000      Y:     0.0000      Z:     0.0557

  Dipole Moment: (a.u.)
     X:     0.0000      Y:     0.0000      Z:     1.1161     Total:     1.1161

  Dipole Moment: (Debye)
     X:     0.0000      Y:     0.0000      Z:     2.8368     Total:     2.8368


*** tstop() called on QuickSilver.local at Thu Nov  9 09:54:03 2017
Module time:
	user time   =       0.41 seconds =       0.01 minutes
	system time =       0.03 seconds =       0.00 minutes
	total time  =          1 seconds =       0.02 minutes
Total time:
	user time   =       1.20 seconds =       0.02 minutes
	system time =       0.89 seconds =       0.01 minutes
	total time  =          5 seconds =       0.08 minutes
 MINTS: Wrapper to libmints.
   by Justin Turney

   Calculation information:
      Number of threads:                 1
      Number of atoms:                   3
      Number of AO shells:              12
      Number of SO shells:               9
      Number of primitives:             32
      Number of atomic orbitals:        25
      Number of basis functions:        24

      Number of irreps:                  4
      Integral cutoff                 0.00e+00
      Number of functions per irrep: [  11    2    4    7 ]

  Perturbing V by -0.050000 mu(z).
 OEINTS: Overlap, kinetic, potential, dipole, and quadrupole integrals
         stored in file 35.

      Computing two-electron integrals...done
      Computed 11562 non-zero two-electron integrals.
        Stored in file 33.


*** tstart() called on QuickSilver.local
*** at Thu Nov  9 09:54:03 2017


	Wfn Parameters:
	--------------------
	Wavefunction         = CCSD
	Number of irreps     = 4
	Number of MOs        = 24
	Number of active MOs = 24
	AO-Basis             = NONE
	Semicanonical        = false
	Reference            = RHF
	Print Level          = 1

	IRREP	# MOs	# FZDC	# DOCC	# SOCC	# VIRT	# FZVR
	-----	-----	------	------	------	------	------
	 A1	   11	    0	    3	    0	    8	    0
	 A2	   2	    0	    0	    0	    2	    0
	 B1	   4	    0	    1	    0	    3	    0
	 B2	   7	    0	    1	    0	    6	    0
	Transforming integrals...
	IWL integrals will be deleted.
	(OO|OO)...
	Presorting SO-basis two-electron integrals.
	Sorting File: SO Ints (nn|nn) nbuckets = 1
	Transforming the one-electron integrals and constructing Fock matrices
	Starting first half-transformation.
	Sorting half-transformed integrals.
	First half integral transformation complete.
	Starting second half-transformation.
	Two-electron integral transformation complete.
	(OO|OV)...
	Starting second half-transformation.
	Two-electron integral transformation complete.
	(OO|VV)...
	Starting second half-transformation.
	Two-electron integral transformation complete.
	(OV|OO)...
	Starting first half-transformation.
	Sorting half-transformed integrals.
	First half integral transformation complete.
	Starting second half-transformation.
	Two-electron integral transformation complete.
	(OV|OV)...
	Starting second half-transformation.
	Two-electron integral transformation complete.
	(OV|VV)...
	Starting second half-transformation.
	Two-electron integral transformation complete.
	(VV|OO)...
	Starting first half-transformation.
	Sorting half-transformed integrals.
	First half integral transformation complete.
	Starting second half-transformation.
	Two-electron integral transformation complete.
	(VV|OV)...
	Starting second half-transformation.
	Two-electron integral transformation complete.
	(VV|VV)...
	Starting second half-transformation.
	Two-electron integral transformation complete.
	Frozen core energy     =      0.00000000000000

	Size of irrep 0 of <ab|cd> integrals:      0.013 (MW) /      0.102 (MB)
	Size of irrep 1 of <ab|cd> integrals:      0.005 (MW) /      0.037 (MB)
	Size of irrep 2 of <ab|cd> integrals:      0.005 (MW) /      0.041 (MB)
	Size of irrep 3 of <ab|cd> integrals:      0.012 (MW) /      0.093 (MB)
	Total:                                     0.034 (MW) /      0.274 (MB)

	Size of irrep 0 of <ia|bc> integrals:      0.004 (MW) /      0.030 (MB)
	Size of irrep 1 of <ia|bc> integrals:      0.001 (MW) /      0.008 (MB)
	Size of irrep 2 of <ia|bc> integrals:      0.001 (MW) /      0.011 (MB)
	Size of irrep 3 of <ia|bc> integrals:      0.003 (MW) /      0.024 (MB)
	Total:                                     0.009 (MW) /      0.073 (MB)

	Size of irrep 0 of tijab amplitudes:       0.001 (MW) /      0.010 (MB)
	Size of irrep 1 of tijab amplitudes:       0.000 (MW) /      0.001 (MB)
	Size of irrep 2 of tijab amplitudes:       0.000 (MW) /      0.003 (MB)
	Size of irrep 3 of tijab amplitudes:       0.001 (MW) /      0.005 (MB)
	Total:                                     0.002 (MW) /      0.020 (MB)

	Nuclear Rep. energy          =      8.84579381224557
	SCF energy                   =    -76.07218530094315
	One-electron energy          =   -122.74720388645702
	Two-electron energy          =     37.82922477326826
	Reference energy             =    -76.07218530094318

*** tstop() called on QuickSilver.local at Thu Nov  9 09:54:03 2017
Module time:
	user time   =       0.01 seconds =       0.00 minutes
	system time =       0.07 seconds =       0.00 minutes
	total time  =          0 seconds =       0.00 minutes
Total time:
	user time   =       1.25 seconds =       0.02 minutes
	system time =       0.97 seconds =       0.02 minutes
	total time  =          5 seconds =       0.08 minutes

*** tstart() called on QuickSilver.local
*** at Thu Nov  9 09:54:03 2017

            **************************
            *                        *
            *        CCENERGY        *
            *                        *
            **************************

    Nuclear Rep. energy (wfn)     =    8.845793812245574
    SCF energy          (wfn)     =  -76.072185300943147
    Reference energy    (file100) =  -76.072185300943175

    Input parameters:
    -----------------
    Wave function   =     CCSD
    Reference wfn   =     RHF
    Brueckner       =     No
    Memory (Mbytes) =     524.3
    Maxiter         =     50
    R_Convergence   =     1.0e-10
    E_Convergence   =     1.0e-10
    Restart         =     Yes
    DIIS            =     Yes
    AO Basis        =     NONE
    ABCD            =     NEW
    Cache Level     =     2
    Cache Type      =     LOW
    Print Level     =     1
    Num. of threads =     1
    # Amps to Print =     10
    Print MP2 Amps? =     No
    Analyze T2 Amps =     No
    Print Pair Ener =     No
    Local CC        =     No
    SCS-MP2         =     False
    SCSN-MP2        =     False
    SCS-CCSD        =     False

    Using old T1 amplitudes.
    Using old T2 amplitudes.

MP2 correlation energy -0.2047437390152129
                Solving CC Amplitude Equations
                ------------------------------
  Iter             Energy              RMS        T1Diag      D1Diag    New D1Diag    D2Diag
  ----     ---------------------    ---------   ----------  ----------  ----------   --------
     0        -0.213587358253407    0.000e+00    0.005260    0.011360    0.011360    0.124180
     1        -0.213638119809837    4.574e-04    0.005258    0.011366    0.011366    0.124264
     2        -0.213640588663409    9.142e-05    0.005268    0.011386    0.011386    0.124281
     3        -0.213643768548885    3.020e-05    0.005271    0.011390    0.011390    0.124291
     4        -0.213644376726235    1.161e-05    0.005273    0.011391    0.011391    0.124293
     5        -0.213644398633099    2.694e-06    0.005273    0.011391    0.011391    0.124293
     6        -0.213644355956489    7.183e-07    0.005273    0.011391    0.011391    0.124293
     7        -0.213644343511073    1.256e-07    0.005273    0.011391    0.011391    0.124293
     8        -0.213644340948123    2.156e-08    0.005273    0.011391    0.011391    0.124293
     9        -0.213644340638511    4.207e-09    0.005273    0.011391    0.011391    0.124293
    10        -0.213644340576034    8.723e-10    0.005273    0.011391    0.011391    0.124293
    11        -0.213644340582282    1.982e-10    0.005273    0.011391    0.011391    0.124293
    12        -0.213644340582107    3.635e-11    0.005273    0.011391    0.011391    0.124293

    Iterations converged.


    Largest TIA Amplitudes:
              4  17         0.0072146147
              4  13        -0.0063761283
              2   0         0.0056652402
              4  15         0.0051450490
              2   5         0.0049835618
              1   0        -0.0049778212
              1   2         0.0038922526
              2   1        -0.0035998340
              4  14        -0.0032498412
              3  11         0.0032311451

    Largest TIjAb Amplitudes:
      3   3  10  10        -0.0518466942
      2   2   2   2        -0.0348109097
      4   4  14  14        -0.0341379636
      4   4  13  13        -0.0317932330
      2   3   2  10         0.0286120875
      3   2  10   2         0.0286120875
      4   4   1   1        -0.0245551458
      2   2  14  14        -0.0244292042
      3   4  10  15        -0.0240437931
      4   3  15  10        -0.0240437931

    SCF energy       (wfn)                    =  -76.072185300943147
    Reference energy (file100)                =  -76.072185300943175

    Opposite-spin MP2 correlation energy      =   -0.152894732927136
    Same-spin MP2 correlation energy          =   -0.051849006088076
    MP2 correlation energy                    =   -0.204743739015213
      * MP2 total energy                      =  -76.276929039958389

    Opposite-spin CCSD correlation energy     =   -0.167591118178666
    Same-spin CCSD correlation energy         =   -0.046053222402723
    CCSD correlation energy                   =   -0.213644340582107
      * CCSD total energy                     =  -76.285829641525282


*** tstop() called on QuickSilver.local at Thu Nov  9 09:54:06 2017
Module time:
	user time   =       0.12 seconds =       0.00 minutes
	system time =       0.52 seconds =       0.01 minutes
	total time  =          3 seconds =       0.05 minutes
Total time:
	user time   =       1.37 seconds =       0.02 minutes
	system time =       1.49 seconds =       0.02 minutes
	total time  =          8 seconds =       0.13 minutes

  //>>>>>>>>>>>>>>>>>>>>>>>>>>>>>>>>>>>//
  //    Loading displacement 2 of 13   //
  //<<<<<<<<<<<<<<<<<<<<<<<<<<<<<<<<<<<//

*** tstart() called on QuickSilver.local
*** at Thu Nov  9 09:54:06 2017

   => Loading Basis Set <=

    Name: CC-PVDZ
    Role: ORBITAL
    Keyword: BASIS
    atoms 1   entry O          line   198 file /Users/andysim/programming/psi4/obj_opt/stage/usr/local/psi4/share/psi4/basis/cc-pvdz.gbs 
    atoms 2-3 entry H          line    22 file /Users/andysim/programming/psi4/obj_opt/stage/usr/local/psi4/share/psi4/basis/cc-pvdz.gbs 


         ---------------------------------------------------------
                                   SCF
            by Justin Turney, Rob Parrish, Andy Simmonett
                             and Daniel Smith
                              RHF Reference
                        1 Threads,    500 MiB Core
         ---------------------------------------------------------

  ==> Geometry <==

    Molecular point group: c2v
    Full point group: C2v

    Geometry (in Angstrom), charge = 0, multiplicity = 1:

       Center              X                  Y                   Z               Mass       
    ------------   -----------------  -----------------  -----------------  -----------------
           O          0.000000000000     0.000000000000    -0.071217076460    15.994914619560
           H          0.000000000000    -0.758215806856     0.565133342189     1.007825032070
           H         -0.000000000000     0.758215806856     0.565133342189     1.007825032070

  Running in c2v symmetry.

  Rotational constants: A =     23.25595  B =     14.54775  C =      8.94943 [cm^-1]
  Rotational constants: A = 697195.85146  B = 436130.43148  C = 268297.25217 [MHz]
  Nuclear repulsion =    8.849523518000312

  Charge       = 0
  Multiplicity = 1
  Electrons    = 10
  Nalpha       = 5
  Nbeta        = 5

  ==> Algorithm <==

  SCF Algorithm Type is PK.
  DIIS enabled.
  MOM disabled.
  Fractional occupation disabled.
  Guess Type is SAD.
  Energy threshold   = 1.00e-10
  Density threshold  = 1.00e-10
  Integral threshold = 0.00e+00

  ==> Primary Basis <==

  Basis Set: CC-PVDZ
    Blend: CC-PVDZ
    Number of shells: 12
    Number of basis function: 24
    Number of Cartesian functions: 25
    Spherical Harmonics?: true
    Max angular momentum: 2

  ==> Pre-Iterations <==

   -------------------------------------------------------
    Irrep   Nso     Nmo     Nalpha   Nbeta   Ndocc  Nsocc
   -------------------------------------------------------
     A1        11      11       0       0       0       0
     A2         2       2       0       0       0       0
     B1         4       4       0       0       0       0
     B2         7       7       0       0       0       0
   -------------------------------------------------------
    Total      24      24       5       5       5       0
   -------------------------------------------------------

  Perturbing V by -0.050000 mu(z).
  ==> Integral Setup <==

  Using in-core PK algorithm.
   Calculation information:
      Number of atoms:                   3
      Number of AO shells:              12
      Number of primitives:             32
      Number of atomic orbitals:        25
      Number of basis functions:        24

      Integral cutoff                 1.00e-12
      Number of threads:                 1

  Performing in-core PK
  Using 90300 doubles for integral storage.
  We computed 3081 shell quartets total.
  Whereas there are 3081 unique shell quartets.
  ==> DiskJK: Disk-Based J/K Matrices <==

    J tasked:                  Yes
    K tasked:                  Yes
    wK tasked:                  No
    Memory (MB):               375
    Schwarz Cutoff:          1E-12

    OpenMP threads:              1
  Minimum eigenvalue in the overlap matrix is 3.5890825304E-02.
  Using Symmetric Orthogonalization.

  SCF Guess: Superposition of Atomic Densities via on-the-fly atomic UHF.

  ==> Iterations <==

                        Total Energy        Delta E     RMS |[F,P]|

   @RHF iter   0:   -75.93910094177690   -7.59391e+01   1.16114e-01 
   @RHF iter   1:   -76.02063482355854   -8.15339e-02   2.48382e-02 
   @RHF iter   2:   -76.06067195274558   -4.00371e-02   1.28477e-02 DIIS
   @RHF iter   3:   -76.07160134433897   -1.09294e-02   1.94284e-03 DIIS
   @RHF iter   4:   -76.07216351505588   -5.62171e-04   5.63715e-04 DIIS
   @RHF iter   5:   -76.07222727435105   -6.37593e-05   8.96263e-05 DIIS
   @RHF iter   6:   -76.07222919598827   -1.92164e-06   1.50652e-05 DIIS
   @RHF iter   7:   -76.07222924620694   -5.02187e-08   2.16036e-06 DIIS
   @RHF iter   8:   -76.07222924731536   -1.10842e-09   3.70330e-07 DIIS
   @RHF iter   9:   -76.07222924734569   -3.03260e-11   3.14356e-08 DIIS
   @RHF iter  10:   -76.07222924734567    1.42109e-14   2.57669e-09 DIIS
   @RHF iter  11:   -76.07222924734567    0.00000e+00   3.37871e-10 DIIS
   @RHF iter  12:   -76.07222924734572   -4.26326e-14   3.41868e-11 DIIS

  ==> Post-Iterations <==

    Orbital Energies (a.u.)
    -----------------------

    Doubly Occupied:                                                      

       1A1   -20.538131     2A1    -1.305428     1B2    -0.656066  
       3A1    -0.565880     1B1    -0.479381  

    Virtual:                                                              

       4A1     0.240320     2B2     0.313968     3B2     0.780698  
       5A1     0.888618     6A1     1.169033     2B1     1.207923  
       4B2     1.265224     7A1     1.423908     1A2     1.523493  
       3B1     1.674269     8A1     1.886484     5B2     1.962358  
       6B2     2.406500     9A1     2.457433     4B1     3.292161  
       2A2     3.305080    10A1     3.489414    11A1     3.822256  
       7B2     4.143824  

    Final Occupation by Irrep:
             A1    A2    B1    B2 
    DOCC [     3,    0,    1,    1 ]

  Energy converged.

  @RHF Final Energy:   -76.07222924734572 with 0.000000 0.000000 -0.050000 perturbation

   => Energetics <=

    Nuclear Repulsion Energy =              8.8495235180003124
    One-Electron Energy =                -122.7537333058971285
    Two-Electron Energy =                  37.8319805405510934
    PCM Polarization Energy =               0.0000000000000000
    Total Energy =                        -76.0722292473457173

    Alert: EFP and PCM quantities not currently incorporated into SCF psivars.

Properties will be evaluated at   0.000000,   0.000000,   0.000000 Bohr

Properties computed using the SCF density matrix

  Nuclear Dipole Moment: (a.u.)
     X:     0.0000      Y:     0.0000      Z:     1.0592

  Electronic Dipole Moment: (a.u.)
     X:     0.0000      Y:     0.0000      Z:     0.0560

  Dipole Moment: (a.u.)
     X:     0.0000      Y:     0.0000      Z:     1.1152     Total:     1.1152

  Dipole Moment: (Debye)
     X:     0.0000      Y:     0.0000      Z:     2.8346     Total:     2.8346


*** tstop() called on QuickSilver.local at Thu Nov  9 09:54:07 2017
Module time:
	user time   =       0.42 seconds =       0.01 minutes
	system time =       0.02 seconds =       0.00 minutes
	total time  =          1 seconds =       0.02 minutes
Total time:
	user time   =       1.80 seconds =       0.03 minutes
	system time =       1.51 seconds =       0.03 minutes
	total time  =          9 seconds =       0.15 minutes
 MINTS: Wrapper to libmints.
   by Justin Turney

   Calculation information:
      Number of threads:                 1
      Number of atoms:                   3
      Number of AO shells:              12
      Number of SO shells:               9
      Number of primitives:             32
      Number of atomic orbitals:        25
      Number of basis functions:        24

      Number of irreps:                  4
      Integral cutoff                 0.00e+00
      Number of functions per irrep: [  11    2    4    7 ]

  Perturbing V by -0.050000 mu(z).
 OEINTS: Overlap, kinetic, potential, dipole, and quadrupole integrals
         stored in file 35.

      Computing two-electron integrals...done
      Computed 11542 non-zero two-electron integrals.
        Stored in file 33.


*** tstart() called on QuickSilver.local
*** at Thu Nov  9 09:54:07 2017


	Wfn Parameters:
	--------------------
	Wavefunction         = CCSD
	Number of irreps     = 4
	Number of MOs        = 24
	Number of active MOs = 24
	AO-Basis             = NONE
	Semicanonical        = false
	Reference            = RHF
	Print Level          = 1

	IRREP	# MOs	# FZDC	# DOCC	# SOCC	# VIRT	# FZVR
	-----	-----	------	------	------	------	------
	 A1	   11	    0	    3	    0	    8	    0
	 A2	   2	    0	    0	    0	    2	    0
	 B1	   4	    0	    1	    0	    3	    0
	 B2	   7	    0	    1	    0	    6	    0
	Transforming integrals...
	IWL integrals will be deleted.
	(OO|OO)...
	Presorting SO-basis two-electron integrals.
	Sorting File: SO Ints (nn|nn) nbuckets = 1
	Transforming the one-electron integrals and constructing Fock matrices
	Starting first half-transformation.
	Sorting half-transformed integrals.
	First half integral transformation complete.
	Starting second half-transformation.
	Two-electron integral transformation complete.
	(OO|OV)...
	Starting second half-transformation.
	Two-electron integral transformation complete.
	(OO|VV)...
	Starting second half-transformation.
	Two-electron integral transformation complete.
	(OV|OO)...
	Starting first half-transformation.
	Sorting half-transformed integrals.
	First half integral transformation complete.
	Starting second half-transformation.
	Two-electron integral transformation complete.
	(OV|OV)...
	Starting second half-transformation.
	Two-electron integral transformation complete.
	(OV|VV)...
	Starting second half-transformation.
	Two-electron integral transformation complete.
	(VV|OO)...
	Starting first half-transformation.
	Sorting half-transformed integrals.
	First half integral transformation complete.
	Starting second half-transformation.
	Two-electron integral transformation complete.
	(VV|OV)...
	Starting second half-transformation.
	Two-electron integral transformation complete.
	(VV|VV)...
	Starting second half-transformation.
	Two-electron integral transformation complete.
	Frozen core energy     =      0.00000000000000

	Size of irrep 0 of <ab|cd> integrals:      0.013 (MW) /      0.102 (MB)
	Size of irrep 1 of <ab|cd> integrals:      0.005 (MW) /      0.037 (MB)
	Size of irrep 2 of <ab|cd> integrals:      0.005 (MW) /      0.041 (MB)
	Size of irrep 3 of <ab|cd> integrals:      0.012 (MW) /      0.093 (MB)
	Total:                                     0.034 (MW) /      0.274 (MB)

	Size of irrep 0 of <ia|bc> integrals:      0.004 (MW) /      0.030 (MB)
	Size of irrep 1 of <ia|bc> integrals:      0.001 (MW) /      0.008 (MB)
	Size of irrep 2 of <ia|bc> integrals:      0.001 (MW) /      0.011 (MB)
	Size of irrep 3 of <ia|bc> integrals:      0.003 (MW) /      0.024 (MB)
	Total:                                     0.009 (MW) /      0.073 (MB)

	Size of irrep 0 of tijab amplitudes:       0.001 (MW) /      0.010 (MB)
	Size of irrep 1 of tijab amplitudes:       0.000 (MW) /      0.001 (MB)
	Size of irrep 2 of tijab amplitudes:       0.000 (MW) /      0.003 (MB)
	Size of irrep 3 of tijab amplitudes:       0.001 (MW) /      0.005 (MB)
	Total:                                     0.002 (MW) /      0.020 (MB)

	Nuclear Rep. energy          =      8.84952351800031
	SCF energy                   =    -76.07222924734572
	One-electron energy          =   -122.75373330587755
	Two-electron energy          =     37.83198054053153
	Reference energy             =    -76.07222924734570

*** tstop() called on QuickSilver.local at Thu Nov  9 09:54:07 2017
Module time:
	user time   =       0.03 seconds =       0.00 minutes
	system time =       0.08 seconds =       0.00 minutes
	total time  =          0 seconds =       0.00 minutes
Total time:
	user time   =       1.86 seconds =       0.03 minutes
	system time =       1.59 seconds =       0.03 minutes
	total time  =          9 seconds =       0.15 minutes

*** tstart() called on QuickSilver.local
*** at Thu Nov  9 09:54:07 2017

            **************************
            *                        *
            *        CCENERGY        *
            *                        *
            **************************

    Nuclear Rep. energy (wfn)     =    8.849523518000312
    SCF energy          (wfn)     =  -76.072229247345717
    Reference energy    (file100) =  -76.072229247345703

    Input parameters:
    -----------------
    Wave function   =     CCSD
    Reference wfn   =     RHF
    Brueckner       =     No
    Memory (Mbytes) =     524.3
    Maxiter         =     50
    R_Convergence   =     1.0e-10
    E_Convergence   =     1.0e-10
    Restart         =     Yes
    DIIS            =     Yes
    AO Basis        =     NONE
    ABCD            =     NEW
    Cache Level     =     2
    Cache Type      =     LOW
    Print Level     =     1
    Num. of threads =     1
    # Amps to Print =     10
    Print MP2 Amps? =     No
    Analyze T2 Amps =     No
    Print Pair Ener =     No
    Local CC        =     No
    SCS-MP2         =     False
    SCSN-MP2        =     False
    SCS-CCSD        =     False

    Using old T1 amplitudes.
    Using old T2 amplitudes.

MP2 correlation energy -0.2047114545123652
                Solving CC Amplitude Equations
                ------------------------------
  Iter             Energy              RMS        T1Diag      D1Diag    New D1Diag    D2Diag
  ----     ---------------------    ---------   ----------  ----------  ----------   --------
     0        -0.213641734222745    0.000e+00    0.005273    0.011391    0.011391    0.124293
     1        -0.213616861702175    2.287e-04    0.005275    0.011388    0.011388    0.124251
     2        -0.213615641169951    4.574e-05    0.005270    0.011378    0.011378    0.124242
     3        -0.213614059022133    1.511e-05    0.005268    0.011376    0.011376    0.124238
     4        -0.213613755431718    5.809e-06    0.005267    0.011375    0.011375    0.124236
     5        -0.213613744240439    1.348e-06    0.005267    0.011375    0.011375    0.124236
     6        -0.213613765623804    3.588e-07    0.005267    0.011375    0.011375    0.124236
     7        -0.213613771822946    6.272e-08    0.005267    0.011375    0.011375    0.124236
     8        -0.213613773101209    1.076e-08    0.005267    0.011375    0.011375    0.124236
     9        -0.213613773256021    2.097e-09    0.005267    0.011375    0.011375    0.124236
    10        -0.213613773286931    4.344e-10    0.005267    0.011375    0.011375    0.124236
    11        -0.213613773283513    9.877e-11    0.005267    0.011375    0.011375    0.124236

    Iterations converged.


    Largest TIA Amplitudes:
              4  17         0.0072099302
              4  13        -0.0063695783
              2   0         0.0056483539
              4  15         0.0051317170
              1   0        -0.0049852112
              2   5         0.0049770425
              1   2         0.0038888450
              2   1        -0.0035936688
              4  14        -0.0032396111
              3  11         0.0032279463

    Largest TIjAb Amplitudes:
      3   3  10  10        -0.0518459821
      2   2   2   2        -0.0348301312
      4   4  14  14        -0.0341367052
      4   4  13  13        -0.0317334380
      2   3   2  10         0.0286212563
      3   2  10   2         0.0286212563
      4   4   1   1        -0.0245741901
      2   2  14  14        -0.0244283831
      3   4  10  15        -0.0240400904
      4   3  15  10        -0.0240400904

    SCF energy       (wfn)                    =  -76.072229247345717
    Reference energy (file100)                =  -76.072229247345703

    Opposite-spin MP2 correlation energy      =   -0.152869013883960
    Same-spin MP2 correlation energy          =   -0.051842440628405
    MP2 correlation energy                    =   -0.204711454512365
      * MP2 total energy                      =  -76.276940701858067

    Opposite-spin CCSD correlation energy     =   -0.167561799366656
    Same-spin CCSD correlation energy         =   -0.046051973917035
    CCSD correlation energy                   =   -0.213613773283513
      * CCSD total energy                     =  -76.285843020629216


*** tstop() called on QuickSilver.local at Thu Nov  9 09:54:10 2017
Module time:
	user time   =       0.09 seconds =       0.00 minutes
	system time =       0.44 seconds =       0.01 minutes
	total time  =          3 seconds =       0.05 minutes
Total time:
	user time   =       1.95 seconds =       0.03 minutes
	system time =       2.03 seconds =       0.03 minutes
	total time  =         12 seconds =       0.20 minutes

  //>>>>>>>>>>>>>>>>>>>>>>>>>>>>>>>>>>>//
  //    Loading displacement 3 of 13   //
  //<<<<<<<<<<<<<<<<<<<<<<<<<<<<<<<<<<<//

*** tstart() called on QuickSilver.local
*** at Thu Nov  9 09:54:10 2017

   => Loading Basis Set <=

    Name: CC-PVDZ
    Role: ORBITAL
    Keyword: BASIS
    atoms 1   entry O          line   198 file /Users/andysim/programming/psi4/obj_opt/stage/usr/local/psi4/share/psi4/basis/cc-pvdz.gbs 
    atoms 2-3 entry H          line    22 file /Users/andysim/programming/psi4/obj_opt/stage/usr/local/psi4/share/psi4/basis/cc-pvdz.gbs 


         ---------------------------------------------------------
                                   SCF
            by Justin Turney, Rob Parrish, Andy Simmonett
                             and Daniel Smith
                              RHF Reference
                        1 Threads,    500 MiB Core
         ---------------------------------------------------------

  ==> Geometry <==

    Molecular point group: c2v
    Full point group: C2v

    Geometry (in Angstrom), charge = 0, multiplicity = 1:

       Center              X                  Y                   Z               Mass       
    ------------   -----------------  -----------------  -----------------  -----------------
           O          0.000000000000     0.000000000000    -0.071068995925    15.994914619560
           H          0.000000000000    -0.758215806856     0.563958269413     1.007825032070
           H         -0.000000000000     0.758215806856     0.563958269413     1.007825032070

  Running in c2v symmetry.

  Rotational constants: A =     23.35296  B =     14.54775  C =      8.96376 [cm^-1]
  Rotational constants: A = 700104.25592  B = 436130.43148  C = 268726.85247 [MHz]
  Nuclear repulsion =    8.856985673909731

  Charge       = 0
  Multiplicity = 1
  Electrons    = 10
  Nalpha       = 5
  Nbeta        = 5

  ==> Algorithm <==

  SCF Algorithm Type is PK.
  DIIS enabled.
  MOM disabled.
  Fractional occupation disabled.
  Guess Type is SAD.
  Energy threshold   = 1.00e-10
  Density threshold  = 1.00e-10
  Integral threshold = 0.00e+00

  ==> Primary Basis <==

  Basis Set: CC-PVDZ
    Blend: CC-PVDZ
    Number of shells: 12
    Number of basis function: 24
    Number of Cartesian functions: 25
    Spherical Harmonics?: true
    Max angular momentum: 2

  ==> Pre-Iterations <==

   -------------------------------------------------------
    Irrep   Nso     Nmo     Nalpha   Nbeta   Ndocc  Nsocc
   -------------------------------------------------------
     A1        11      11       0       0       0       0
     A2         2       2       0       0       0       0
     B1         4       4       0       0       0       0
     B2         7       7       0       0       0       0
   -------------------------------------------------------
    Total      24      24       5       5       5       0
   -------------------------------------------------------

  Perturbing V by -0.050000 mu(z).
  ==> Integral Setup <==

  Using in-core PK algorithm.
   Calculation information:
      Number of atoms:                   3
      Number of AO shells:              12
      Number of primitives:             32
      Number of atomic orbitals:        25
      Number of basis functions:        24

      Integral cutoff                 1.00e-12
      Number of threads:                 1

  Performing in-core PK
  Using 90300 doubles for integral storage.
  We computed 3081 shell quartets total.
  Whereas there are 3081 unique shell quartets.
  ==> DiskJK: Disk-Based J/K Matrices <==

    J tasked:                  Yes
    K tasked:                  Yes
    wK tasked:                  No
    Memory (MB):               375
    Schwarz Cutoff:          1E-12

    OpenMP threads:              1
  Minimum eigenvalue in the overlap matrix is 3.5845027440E-02.
  Using Symmetric Orthogonalization.

  SCF Guess: Superposition of Atomic Densities via on-the-fly atomic UHF.

  ==> Iterations <==

                        Total Energy        Delta E     RMS |[F,P]|

   @RHF iter   0:   -75.90029664938073   -7.59003e+01   1.16192e-01 
   @RHF iter   1:   -76.02558796225441   -1.25291e-01   2.42706e-02 
   @RHF iter   2:   -76.06160180913528   -3.60138e-02   1.26166e-02 DIIS
   @RHF iter   3:   -76.07194980151007   -1.03480e-02   1.59860e-03 DIIS
   @RHF iter   4:   -76.07227984319765   -3.30042e-04   4.42222e-04 DIIS
   @RHF iter   5:   -76.07231386676621   -3.40236e-05   7.03514e-05 DIIS
   @RHF iter   6:   -76.07231491637872   -1.04961e-06   1.10133e-05 DIIS
   @RHF iter   7:   -76.07231494204788   -2.56692e-08   1.51620e-06 DIIS
   @RHF iter   8:   -76.07231494260046   -5.52575e-10   3.20318e-07 DIIS
   @RHF iter   9:   -76.07231494262639   -2.59348e-11   2.94816e-08 DIIS
   @RHF iter  10:   -76.07231494262655   -1.56319e-13   2.32355e-09 DIIS
   @RHF iter  11:   -76.07231494262651    4.26326e-14   2.33177e-10 DIIS
   @RHF iter  12:   -76.07231494262655   -4.26326e-14   1.71957e-11 DIIS

  ==> Post-Iterations <==

    Orbital Energies (a.u.)
    -----------------------

    Doubly Occupied:                                                      

       1A1   -20.538020     2A1    -1.305792     1B2    -0.656759  
       3A1    -0.565878     1B1    -0.479456  

    Virtual:                                                              

       4A1     0.240406     2B2     0.314037     3B2     0.781466  
       5A1     0.888816     6A1     1.168821     2B1     1.207920  
       4B2     1.264982     7A1     1.424880     1A2     1.523219  
       3B1     1.674955     8A1     1.886438     5B2     1.962527  
       6B2     2.408415     9A1     2.459142     4B1     3.292346  
       2A2     3.306215    10A1     3.490532    11A1     3.823404  
       7B2     4.144259  

    Final Occupation by Irrep:
             A1    A2    B1    B2 
    DOCC [     3,    0,    1,    1 ]

  Energy converged.

  @RHF Final Energy:   -76.07231494262655 with 0.000000 0.000000 -0.050000 perturbation

   => Energetics <=

    Nuclear Repulsion Energy =              8.8569856739097315
    One-Electron Energy =                -122.7667938247941919
    Two-Electron Energy =                  37.8374932082579107
    PCM Polarization Energy =               0.0000000000000000
    Total Energy =                        -76.0723149426265479

    Alert: EFP and PCM quantities not currently incorporated into SCF psivars.

Properties will be evaluated at   0.000000,   0.000000,   0.000000 Bohr

Properties computed using the SCF density matrix

  Nuclear Dipole Moment: (a.u.)
     X:     0.0000      Y:     0.0000      Z:     1.0570

  Electronic Dipole Moment: (a.u.)
     X:     0.0000      Y:     0.0000      Z:     0.0565

  Dipole Moment: (a.u.)
     X:     0.0000      Y:     0.0000      Z:     1.1135     Total:     1.1135

  Dipole Moment: (Debye)
     X:     0.0000      Y:     0.0000      Z:     2.8304     Total:     2.8304


*** tstop() called on QuickSilver.local at Thu Nov  9 09:54:10 2017
Module time:
	user time   =       0.41 seconds =       0.01 minutes
	system time =       0.02 seconds =       0.00 minutes
	total time  =          0 seconds =       0.00 minutes
Total time:
	user time   =       2.37 seconds =       0.04 minutes
	system time =       2.05 seconds =       0.03 minutes
	total time  =         12 seconds =       0.20 minutes
 MINTS: Wrapper to libmints.
   by Justin Turney

   Calculation information:
      Number of threads:                 1
      Number of atoms:                   3
      Number of AO shells:              12
      Number of SO shells:               9
      Number of primitives:             32
      Number of atomic orbitals:        25
      Number of basis functions:        24

      Number of irreps:                  4
      Integral cutoff                 0.00e+00
      Number of functions per irrep: [  11    2    4    7 ]

  Perturbing V by -0.050000 mu(z).
 OEINTS: Overlap, kinetic, potential, dipole, and quadrupole integrals
         stored in file 35.

      Computing two-electron integrals...done
      Computed 11568 non-zero two-electron integrals.
        Stored in file 33.


*** tstart() called on QuickSilver.local
*** at Thu Nov  9 09:54:10 2017


	Wfn Parameters:
	--------------------
	Wavefunction         = CCSD
	Number of irreps     = 4
	Number of MOs        = 24
	Number of active MOs = 24
	AO-Basis             = NONE
	Semicanonical        = false
	Reference            = RHF
	Print Level          = 1

	IRREP	# MOs	# FZDC	# DOCC	# SOCC	# VIRT	# FZVR
	-----	-----	------	------	------	------	------
	 A1	   11	    0	    3	    0	    8	    0
	 A2	   2	    0	    0	    0	    2	    0
	 B1	   4	    0	    1	    0	    3	    0
	 B2	   7	    0	    1	    0	    6	    0
	Transforming integrals...
	IWL integrals will be deleted.
	(OO|OO)...
	Presorting SO-basis two-electron integrals.
	Sorting File: SO Ints (nn|nn) nbuckets = 1
	Transforming the one-electron integrals and constructing Fock matrices
	Starting first half-transformation.
	Sorting half-transformed integrals.
	First half integral transformation complete.
	Starting second half-transformation.
	Two-electron integral transformation complete.
	(OO|OV)...
	Starting second half-transformation.
	Two-electron integral transformation complete.
	(OO|VV)...
	Starting second half-transformation.
	Two-electron integral transformation complete.
	(OV|OO)...
	Starting first half-transformation.
	Sorting half-transformed integrals.
	First half integral transformation complete.
	Starting second half-transformation.
	Two-electron integral transformation complete.
	(OV|OV)...
	Starting second half-transformation.
	Two-electron integral transformation complete.
	(OV|VV)...
	Starting second half-transformation.
	Two-electron integral transformation complete.
	(VV|OO)...
	Starting first half-transformation.
	Sorting half-transformed integrals.
	First half integral transformation complete.
	Starting second half-transformation.
	Two-electron integral transformation complete.
	(VV|OV)...
	Starting second half-transformation.
	Two-electron integral transformation complete.
	(VV|VV)...
	Starting second half-transformation.
	Two-electron integral transformation complete.
	Frozen core energy     =      0.00000000000000

	Size of irrep 0 of <ab|cd> integrals:      0.013 (MW) /      0.102 (MB)
	Size of irrep 1 of <ab|cd> integrals:      0.005 (MW) /      0.037 (MB)
	Size of irrep 2 of <ab|cd> integrals:      0.005 (MW) /      0.041 (MB)
	Size of irrep 3 of <ab|cd> integrals:      0.012 (MW) /      0.093 (MB)
	Total:                                     0.034 (MW) /      0.274 (MB)

	Size of irrep 0 of <ia|bc> integrals:      0.004 (MW) /      0.030 (MB)
	Size of irrep 1 of <ia|bc> integrals:      0.001 (MW) /      0.008 (MB)
	Size of irrep 2 of <ia|bc> integrals:      0.001 (MW) /      0.011 (MB)
	Size of irrep 3 of <ia|bc> integrals:      0.003 (MW) /      0.024 (MB)
	Total:                                     0.009 (MW) /      0.073 (MB)

	Size of irrep 0 of tijab amplitudes:       0.001 (MW) /      0.010 (MB)
	Size of irrep 1 of tijab amplitudes:       0.000 (MW) /      0.001 (MB)
	Size of irrep 2 of tijab amplitudes:       0.000 (MW) /      0.003 (MB)
	Size of irrep 3 of tijab amplitudes:       0.001 (MW) /      0.005 (MB)
	Total:                                     0.002 (MW) /      0.020 (MB)

	Nuclear Rep. energy          =      8.85698567390973
	SCF energy                   =    -76.07231494262655
	One-electron energy          =   -122.76679382481657
	Two-electron energy          =     37.83749320828035
	Reference energy             =    -76.07231494262649

*** tstop() called on QuickSilver.local at Thu Nov  9 09:54:11 2017
Module time:
	user time   =       0.02 seconds =       0.00 minutes
	system time =       0.09 seconds =       0.00 minutes
	total time  =          1 seconds =       0.02 minutes
Total time:
	user time   =       2.42 seconds =       0.04 minutes
	system time =       2.15 seconds =       0.04 minutes
	total time  =         13 seconds =       0.22 minutes

*** tstart() called on QuickSilver.local
*** at Thu Nov  9 09:54:11 2017

            **************************
            *                        *
            *        CCENERGY        *
            *                        *
            **************************

    Nuclear Rep. energy (wfn)     =    8.856985673909731
    SCF energy          (wfn)     =  -76.072314942626548
    Reference energy    (file100) =  -76.072314942626491

    Input parameters:
    -----------------
    Wave function   =     CCSD
    Reference wfn   =     RHF
    Brueckner       =     No
    Memory (Mbytes) =     524.3
    Maxiter         =     50
    R_Convergence   =     1.0e-10
    E_Convergence   =     1.0e-10
    Restart         =     Yes
    DIIS            =     Yes
    AO Basis        =     NONE
    ABCD            =     NEW
    Cache Level     =     2
    Cache Type      =     LOW
    Print Level     =     1
    Num. of threads =     1
    # Amps to Print =     10
    Print MP2 Amps? =     No
    Analyze T2 Amps =     No
    Print Pair Ener =     No
    Local CC        =     No
    SCS-MP2         =     False
    SCSN-MP2        =     False
    SCS-CCSD        =     False

    Using old T1 amplitudes.
    Using old T2 amplitudes.

MP2 correlation energy -0.2046469990827821
                Solving CC Amplitude Equations
                ------------------------------
  Iter             Energy              RMS        T1Diag      D1Diag    New D1Diag    D2Diag
  ----     ---------------------    ---------   ----------  ----------  ----------   --------
     0        -0.213608244425265    0.000e+00    0.005267    0.011375    0.011375    0.124236
     1        -0.213558882290628    4.574e-04    0.005270    0.011369    0.011369    0.124152
     2        -0.213556452683625    9.142e-05    0.005259    0.011350    0.011350    0.124135
     3        -0.213553302948989    3.018e-05    0.005256    0.011346    0.011346    0.124126
     4        -0.213552698389574    1.161e-05    0.005254    0.011344    0.011344    0.124123
     5        -0.213552676298878    2.694e-06    0.005254    0.011344    0.011344    0.124123
     6        -0.213552719094722    7.158e-07    0.005254    0.011345    0.011345    0.124123
     7        -0.213552731452117    1.250e-07    0.005254    0.011345    0.011345    0.124124
     8        -0.213552733988224    2.139e-08    0.005254    0.011345    0.011345    0.124124
     9        -0.213552734296842    4.163e-09    0.005254    0.011345    0.011345    0.124124
    10        -0.213552734357833    8.598e-10    0.005254    0.011345    0.011345    0.124124
    11        -0.213552734351942    1.955e-10    0.005254    0.011345    0.011345    0.124124
    12        -0.213552734352126    3.583e-11    0.005254    0.011345    0.011345    0.124124

    Iterations converged.


    Largest TIA Amplitudes:
              4  17         0.0072005106
              4  13        -0.0063566264
              2   0         0.0056145851
              4  15         0.0051050849
              1   0        -0.0049999435
              2   5         0.0049640146
              1   2         0.0038820144
              2   1        -0.0035812906
              3  11         0.0032215252
              4  14        -0.0032192293

    Largest TIjAb Amplitudes:
      3   3  10  10        -0.0518444672
      2   2   2   2        -0.0348686493
      4   4  14  14        -0.0341338829
      4   4  13  13        -0.0316142313
      2   3   2  10         0.0286396033
      3   2  10   2         0.0286396033
      4   4   1   1        -0.0246122879
      2   2  14  14        -0.0244265928
      3   4  10  15        -0.0240326690
      4   3  15  10        -0.0240326690

    SCF energy       (wfn)                    =  -76.072314942626548
    Reference energy (file100)                =  -76.072314942626491

    Opposite-spin MP2 correlation energy      =   -0.152817657366343
    Same-spin MP2 correlation energy          =   -0.051829341716439
    MP2 correlation energy                    =   -0.204646999082782
      * MP2 total energy                      =  -76.276961941709274

    Opposite-spin CCSD correlation energy     =   -0.167503250612401
    Same-spin CCSD correlation energy         =   -0.046049483739675
    CCSD correlation energy                   =   -0.213552734352126
      * CCSD total energy                     =  -76.285867676978611


*** tstop() called on QuickSilver.local at Thu Nov  9 09:54:13 2017
Module time:
	user time   =       0.12 seconds =       0.00 minutes
	system time =       0.46 seconds =       0.01 minutes
[...]
              2   5         0.0050072822
              1   0        -0.0049508321
              1   2         0.0039045931
              2   1        -0.0036221038
              4  14        -0.0032872373
              3  11         0.0032427036

    Largest TIjAb Amplitudes:
      3   3  10  10        -0.0518490263
      2   2   2   2        -0.0347412737
      4   4  14  14        -0.0341416761
      4   4  13  13        -0.0320116007
      2   3   2  10         0.0285787953
      3   2  10   2         0.0285787953
      4   4   1   1        -0.0244859669
      2   2  14  14        -0.0244317719
      3   4  10  15        -0.0240572025
      4   3  15  10        -0.0240572025

    SCF energy       (wfn)                    =  -76.072019455116674
    Reference energy (file100)                =  -76.072019455116674

    Opposite-spin MP2 correlation energy      =   -0.152988422949192
    Same-spin MP2 correlation energy          =   -0.051872954203902
    MP2 correlation energy                    =   -0.204861377153094
      * MP2 total energy                      =  -76.276880832269768

    Opposite-spin CCSD correlation energy     =   -0.167697910068233
    Same-spin CCSD correlation energy         =   -0.046057778117953
    CCSD correlation energy                   =   -0.213755688187275
      * CCSD total energy                     =  -76.285775143303951


*** tstop() called on QuickSilver.local at Thu Nov  9 09:54:47 2017
Module time:
	user time   =       0.18 seconds =       0.00 minutes
	system time =       0.50 seconds =       0.01 minutes
	total time  =          4 seconds =       0.07 minutes
Total time:
	user time   =       8.02 seconds =       0.13 minutes
	system time =       7.08 seconds =       0.12 minutes
	total time  =         49 seconds =       0.82 minutes

  //>>>>>>>>>>>>>>>>>>>>>>>>>>>>>>>>>>>//
  //   Loading displacement 13 of 13   //
  //<<<<<<<<<<<<<<<<<<<<<<<<<<<<<<<<<<<//

*** tstart() called on QuickSilver.local
*** at Thu Nov  9 09:54:47 2017

   => Loading Basis Set <=

    Name: CC-PVDZ
    Role: ORBITAL
    Keyword: BASIS
    atoms 1   entry O          line   198 file /Users/andysim/programming/psi4/obj_opt/stage/usr/local/psi4/share/psi4/basis/cc-pvdz.gbs 
    atoms 2-3 entry H          line    22 file /Users/andysim/programming/psi4/obj_opt/stage/usr/local/psi4/share/psi4/basis/cc-pvdz.gbs 


         ---------------------------------------------------------
                                   SCF
            by Justin Turney, Rob Parrish, Andy Simmonett
                             and Daniel Smith
                              RHF Reference
                        1 Threads,    500 MiB Core
         ---------------------------------------------------------

  ==> Geometry <==

    Molecular point group: c2v
    Full point group: C2v

    Geometry (in Angstrom), charge = 0, multiplicity = 1:

       Center              X                  Y                   Z               Mass       
    ------------   -----------------  -----------------  -----------------  -----------------
           O          0.000000000000     0.000000000000    -0.071143036192    15.994914619560
           H          0.000000000000    -0.758215806856     0.564545805801     1.007825032070
           H         -0.000000000000     0.758215806856     0.564545805801     1.007825032070

  Running in c2v symmetry.

  Rotational constants: A =     23.30438  B =     14.54775  C =      8.95660 [cm^-1]
  Rotational constants: A = 698647.78356  B = 436130.43148  C = 268511.99226 [MHz]
  Nuclear repulsion =    8.853254140090618

  Charge       = 0
  Multiplicity = 1
  Electrons    = 10
  Nalpha       = 5
  Nbeta        = 5

  ==> Algorithm <==

  SCF Algorithm Type is PK.
  DIIS enabled.
  MOM disabled.
  Fractional occupation disabled.
  Guess Type is SAD.
  Energy threshold   = 1.00e-10
  Density threshold  = 1.00e-10
  Integral threshold = 0.00e+00

  ==> Primary Basis <==

  Basis Set: CC-PVDZ
    Blend: CC-PVDZ
    Number of shells: 12
    Number of basis function: 24
    Number of Cartesian functions: 25
    Spherical Harmonics?: true
    Max angular momentum: 2

  ==> Pre-Iterations <==

   -------------------------------------------------------
    Irrep   Nso     Nmo     Nalpha   Nbeta   Ndocc  Nsocc
   -------------------------------------------------------
     A1        11      11       0       0       0       0
     A2         2       2       0       0       0       0
     B1         4       4       0       0       0       0
     B2         7       7       0       0       0       0
   -------------------------------------------------------
    Total      24      24       5       5       5       0
   -------------------------------------------------------

  Perturbing V by -0.050000 mu(z).
  ==> Integral Setup <==

  Using in-core PK algorithm.
   Calculation information:
      Number of atoms:                   3
      Number of AO shells:              12
      Number of primitives:             32
      Number of atomic orbitals:        25
      Number of basis functions:        24

      Integral cutoff                 1.00e-12
      Number of threads:                 1

  Performing in-core PK
  Using 90300 doubles for integral storage.
  We computed 3081 shell quartets total.
  Whereas there are 3081 unique shell quartets.
  ==> DiskJK: Disk-Based J/K Matrices <==

    J tasked:                  Yes
    K tasked:                  Yes
    wK tasked:                  No
    Memory (MB):               375
    Schwarz Cutoff:          1E-12

    OpenMP threads:              1
  Minimum eigenvalue in the overlap matrix is 3.5867903161E-02.
  Using Symmetric Orthogonalization.

  SCF Guess: Superposition of Atomic Densities via on-the-fly atomic UHF.

  ==> Iterations <==

                        Total Energy        Delta E     RMS |[F,P]|

   @RHF iter   0:   -75.88250083710099   -7.58825e+01   1.16012e-01 
   @RHF iter   1:   -76.02794001746166   -1.45439e-01   2.38463e-02 
   @RHF iter   2:   -76.06201085970559   -3.40708e-02   1.23933e-02 DIIS
   @RHF iter   3:   -76.07197383265824   -9.96297e-03   1.48484e-03 DIIS
   @RHF iter   4:   -76.07224436998838   -2.70537e-04   4.00557e-04 DIIS
   @RHF iter   5:   -76.07227155085961   -2.71809e-05   6.52785e-05 DIIS
   @RHF iter   6:   -76.07227243927045   -8.88411e-07   1.02158e-05 DIIS
   @RHF iter   7:   -76.07227246118656   -2.19161e-08   1.31708e-06 DIIS
   @RHF iter   8:   -76.07227246159312   -4.06558e-10   2.90533e-07 DIIS
   @RHF iter   9:   -76.07227246161476   -2.16431e-11   2.93430e-08 DIIS
   @RHF iter  10:   -76.07227246161493   -1.70530e-13   2.25678e-09 DIIS
   @RHF iter  11:   -76.07227246161489    4.26326e-14   2.27972e-10 DIIS
   @RHF iter  12:   -76.07227246161493   -4.26326e-14   1.66247e-11 DIIS

  ==> Post-Iterations <==

    Orbital Energies (a.u.)
    -----------------------

    Doubly Occupied:                                                      

       1A1   -20.538075     2A1    -1.305610     1B2    -0.656412  
       3A1    -0.565879     1B1    -0.479419  

    Virtual:                                                              

       4A1     0.240363     2B2     0.314003     3B2     0.781081  
       5A1     0.888717     6A1     1.168927     2B1     1.207922  
       4B2     1.265103     7A1     1.424394     1A2     1.523356  
       3B1     1.674612     8A1     1.886461     5B2     1.962443  
       6B2     2.407457     9A1     2.458288     4B1     3.292254  
       2A2     3.305647    10A1     3.489975    11A1     3.822828  
       7B2     4.144043  

    Final Occupation by Irrep:
             A1    A2    B1    B2 
    DOCC [     3,    0,    1,    1 ]

  Energy converged.

  @RHF Final Energy:   -76.07227246161493 with 0.000000 0.000000 -0.050000 perturbation

   => Energetics <=

    Nuclear Repulsion Energy =              8.8532541400906180
    One-Electron Energy =                -122.7602632887131335
    Two-Electron Energy =                  37.8347366870075916
    PCM Polarization Energy =               0.0000000000000000
    Total Energy =                        -76.0722724616149293

    Alert: EFP and PCM quantities not currently incorporated into SCF psivars.

Properties will be evaluated at   0.000000,   0.000000,   0.000000 Bohr

Properties computed using the SCF density matrix

  Nuclear Dipole Moment: (a.u.)
     X:     0.0000      Y:     0.0000      Z:     1.0581

  Electronic Dipole Moment: (a.u.)
     X:     0.0000      Y:     0.0000      Z:     0.0562

  Dipole Moment: (a.u.)
     X:     0.0000      Y:     0.0000      Z:     1.1144     Total:     1.1144

  Dipole Moment: (Debye)
     X:     0.0000      Y:     0.0000      Z:     2.8325     Total:     2.8325


*** tstop() called on QuickSilver.local at Thu Nov  9 09:54:47 2017
Module time:
	user time   =       0.62 seconds =       0.01 minutes
	system time =       0.03 seconds =       0.00 minutes
	total time  =          0 seconds =       0.00 minutes
Total time:
	user time   =       8.66 seconds =       0.14 minutes
	system time =       7.11 seconds =       0.12 minutes
	total time  =         49 seconds =       0.82 minutes
 MINTS: Wrapper to libmints.
   by Justin Turney

   Calculation information:
      Number of threads:                 1
      Number of atoms:                   3
      Number of AO shells:              12
      Number of SO shells:               9
      Number of primitives:             32
      Number of atomic orbitals:        25
      Number of basis functions:        24

      Number of irreps:                  4
      Integral cutoff                 0.00e+00
      Number of functions per irrep: [  11    2    4    7 ]

  Perturbing V by -0.050000 mu(z).
 OEINTS: Overlap, kinetic, potential, dipole, and quadrupole integrals
         stored in file 35.

      Computing two-electron integrals...done
      Computed 11550 non-zero two-electron integrals.
        Stored in file 33.


*** tstart() called on QuickSilver.local
*** at Thu Nov  9 09:54:48 2017


	Wfn Parameters:
	--------------------
	Wavefunction         = CCSD
	Number of irreps     = 4
	Number of MOs        = 24
	Number of active MOs = 24
	AO-Basis             = NONE
	Semicanonical        = false
	Reference            = RHF
	Print Level          = 1

	IRREP	# MOs	# FZDC	# DOCC	# SOCC	# VIRT	# FZVR
	-----	-----	------	------	------	------	------
	 A1	   11	    0	    3	    0	    8	    0
	 A2	   2	    0	    0	    0	    2	    0
	 B1	   4	    0	    1	    0	    3	    0
	 B2	   7	    0	    1	    0	    6	    0
	Transforming integrals...
	IWL integrals will be deleted.
	(OO|OO)...
	Presorting SO-basis two-electron integrals.
	Sorting File: SO Ints (nn|nn) nbuckets = 1
	Transforming the one-electron integrals and constructing Fock matrices
	Starting first half-transformation.
	Sorting half-transformed integrals.
	First half integral transformation complete.
	Starting second half-transformation.
	Two-electron integral transformation complete.
	(OO|OV)...
	Starting second half-transformation.
	Two-electron integral transformation complete.
	(OO|VV)...
	Starting second half-transformation.
	Two-electron integral transformation complete.
	(OV|OO)...
	Starting first half-transformation.
	Sorting half-transformed integrals.
	First half integral transformation complete.
	Starting second half-transformation.
	Two-electron integral transformation complete.
	(OV|OV)...
	Starting second half-transformation.
	Two-electron integral transformation complete.
	(OV|VV)...
	Starting second half-transformation.
	Two-electron integral transformation complete.
	(VV|OO)...
	Starting first half-transformation.
	Sorting half-transformed integrals.
	First half integral transformation complete.
	Starting second half-transformation.
	Two-electron integral transformation complete.
	(VV|OV)...
	Starting second half-transformation.
	Two-electron integral transformation complete.
	(VV|VV)...
	Starting second half-transformation.
	Two-electron integral transformation complete.
	Frozen core energy     =      0.00000000000000

	Size of irrep 0 of <ab|cd> integrals:      0.013 (MW) /      0.102 (MB)
	Size of irrep 1 of <ab|cd> integrals:      0.005 (MW) /      0.037 (MB)
	Size of irrep 2 of <ab|cd> integrals:      0.005 (MW) /      0.041 (MB)
	Size of irrep 3 of <ab|cd> integrals:      0.012 (MW) /      0.093 (MB)
	Total:                                     0.034 (MW) /      0.274 (MB)

	Size of irrep 0 of <ia|bc> integrals:      0.004 (MW) /      0.030 (MB)
	Size of irrep 1 of <ia|bc> integrals:      0.001 (MW) /      0.008 (MB)
	Size of irrep 2 of <ia|bc> integrals:      0.001 (MW) /      0.011 (MB)
	Size of irrep 3 of <ia|bc> integrals:      0.003 (MW) /      0.024 (MB)
	Total:                                     0.009 (MW) /      0.073 (MB)

	Size of irrep 0 of tijab amplitudes:       0.001 (MW) /      0.010 (MB)
	Size of irrep 1 of tijab amplitudes:       0.000 (MW) /      0.001 (MB)
	Size of irrep 2 of tijab amplitudes:       0.000 (MW) /      0.003 (MB)
	Size of irrep 3 of tijab amplitudes:       0.001 (MW) /      0.005 (MB)
	Total:                                     0.002 (MW) /      0.020 (MB)

	Nuclear Rep. energy          =      8.85325414009062
	SCF energy                   =    -76.07227246161493
	One-electron energy          =   -122.76026328872224
	Two-electron energy          =     37.83473668701674
	Reference energy             =    -76.07227246161490

*** tstop() called on QuickSilver.local at Thu Nov  9 09:54:48 2017
Module time:
	user time   =       0.02 seconds =       0.00 minutes
	system time =       0.06 seconds =       0.00 minutes
	total time  =          0 seconds =       0.00 minutes
Total time:
	user time   =       8.73 seconds =       0.15 minutes
	system time =       7.18 seconds =       0.12 minutes
	total time  =         50 seconds =       0.83 minutes

*** tstart() called on QuickSilver.local
*** at Thu Nov  9 09:54:48 2017

            **************************
            *                        *
            *        CCENERGY        *
            *                        *
            **************************

    Nuclear Rep. energy (wfn)     =    8.853254140090618
    SCF energy          (wfn)     =  -76.072272461614929
    Reference energy    (file100) =  -76.072272461614901

    Input parameters:
    -----------------
    Wave function   =     CCSD
    Reference wfn   =     RHF
    Brueckner       =     No
    Memory (Mbytes) =     524.3
    Maxiter         =     50
    R_Convergence   =     1.0e-10
    E_Convergence   =     1.0e-10
    Restart         =     Yes
    DIIS            =     Yes
    AO Basis        =     NONE
    ABCD            =     NEW
    Cache Level     =     2
    Cache Type      =     LOW
    Print Level     =     1
    Num. of threads =     1
    # Amps to Print =     10
    Print MP2 Amps? =     No
    Analyze T2 Amps =     No
    Print Pair Ener =     No
    Local CC        =     No
    SCS-MP2         =     False
    SCSN-MP2        =     False
    SCS-CCSD        =     False

    Using old T1 amplitudes.
    Using old T2 amplitudes.

MP2 correlation energy -0.2046792078520863
                Solving CC Amplitude Equations
                ------------------------------
  Iter             Energy              RMS        T1Diag      D1Diag    New D1Diag    D2Diag
  ----     ---------------------    ---------   ----------  ----------  ----------   --------
     0        -0.213736214852302    0.000e+00    0.005298    0.011447    0.011447    0.124499
     1        -0.213600459871050    1.288e-03    0.005306    0.011430    0.011430    0.124260
     2        -0.213593702216705    2.580e-04    0.005276    0.011375    0.011375    0.124212
     3        -0.213584847655327    8.525e-05    0.005267    0.011364    0.011364    0.124186
     4        -0.213583139583605    3.276e-05    0.005261    0.011358    0.011358    0.124179
     5        -0.213583074033648    7.605e-06    0.005260    0.011359    0.011359    0.124179
     6        -0.213583194894637    2.021e-06    0.005260    0.011360    0.011360    0.124180
     7        -0.213583229638984    3.528e-07    0.005260    0.011360    0.011360    0.124180
     8        -0.213583236829317    6.051e-08    0.005260    0.011360    0.011360    0.124180
     9        -0.213583237702498    1.179e-08    0.005260    0.011360    0.011360    0.124180
    10        -0.213583237874357    2.440e-09    0.005260    0.011360    0.011360    0.124180
    11        -0.213583237857413    5.553e-10    0.005260    0.011360    0.011360    0.124180
    12        -0.213583237857829    1.018e-10    0.005260    0.011360    0.011360    0.124180
    13        -0.213583237856375    2.001e-11    0.005260    0.011360    0.011360    0.124180

    Iterations converged.


    Largest TIA Amplitudes:
              4  17         0.0072052288
              4  13        -0.0063630778
              2   0         0.0056314689
              4  15         0.0051183956
              1   0        -0.0049925853
              2   5         0.0049705268
              1   2         0.0038854322
              2   1        -0.0035874876
              4  14        -0.0032294071
              3  11         0.0032247396

    Largest TIjAb Amplitudes:
      3   3  10  10        -0.0518452397
      2   2   2   2        -0.0348493777
      4   4  14  14        -0.0341353450
      4   4  13  13        -0.0316737708
      2   3   2  10         0.0286304282
      3   2  10   2         0.0286304282
      4   4   1   1        -0.0245932375
      2   2  14  14        -0.0244275127
      3   4  10  15        -0.0240363824
      4   3  15  10        -0.0240363824

    SCF energy       (wfn)                    =  -76.072272461614929
    Reference energy (file100)                =  -76.072272461614901

    Opposite-spin MP2 correlation energy      =   -0.152843322018956
    Same-spin MP2 correlation energy          =   -0.051835885833130
    MP2 correlation energy                    =   -0.204679207852086
      * MP2 total energy                      =  -76.276951669466982

    Opposite-spin CCSD correlation energy     =   -0.167532510168017
    Same-spin CCSD correlation energy         =   -0.046050727688283
    CCSD correlation energy                   =   -0.213583237856375
      * CCSD total energy                     =  -76.285855699471270


*** tstop() called on QuickSilver.local at Thu Nov  9 09:54:52 2017
Module time:
	user time   =       0.17 seconds =       0.00 minutes
	system time =       0.47 seconds =       0.01 minutes
	total time  =          4 seconds =       0.07 minutes
Total time:
	user time   =       8.90 seconds =       0.15 minutes
	system time =       7.65 seconds =       0.13 minutes
	total time  =         54 seconds =       0.90 minutes

-------------------------------------------------------------

  Computing gradient from energies (fd_1_0).
	Using 5-point formula.
	Energy without displacement:  -76.2858556995
	Check energies below for precision!
	Forces are for mass-weighted, symmetry-adapted cartesians (in au).

	 Coord      Energy(-2)        Energy(-1)        Energy(+1)        Energy(+2)            Force
	    0    -76.2858296415    -76.2858430206    -76.2858676770    -76.2858789521     -0.0024656705
	    1    -76.2855872111    -76.2857257941    -76.2859768562    -76.2860891933     -0.0251085771
	    2    -76.2859139945    -76.2858876415    -76.2858181921    -76.2857751433      0.0069457379

	Gradient written.

-------------------------------------------------------------
  ## F-D gradient (Symmetry 0) ##
  Irrep: 1 Size: 3 x 3

                 1                   2                   3

    1     0.00000000000000     0.00000000000000    -0.00986111454720
    2     0.00000000000000    -0.01782377434955     0.00493055676696
    3     0.00000000000000     0.01782377434955     0.00493055676696



	Perturbed CCSD finite-diff (5-pt) vs. analytic gradient to 10^-7..PASSED

*** Psi4 exiting successfully. Buy a developer a beer!
