    -----------------------------------------------------------------------
          PSI4: An Open-Source Ab Initio Electronic Structure Package
                              PSI 4.0.0-beta3+ Driver

               Git: Rev {master} da03939ae76153e64151ec5b85250d20165c795d

    J. M. Turney, A. C. Simmonett, R. M. Parrish, E. G. Hohenstein,
    F. A. Evangelista, J. T. Fermann, B. J. Mintz, L. A. Burns, J. J. Wilke,
    M. L. Abrams, N. J. Russ, M. L. Leininger, C. L. Janssen, E. T. Seidl,
    W. D. Allen, H. F. Schaefer, R. A. King, E. F. Valeev, C. D. Sherrill,
    and T. D. Crawford, WIREs Comput. Mol. Sci., (2011) (doi: 10.1002/wcms.93)

                         Additional Contributions by
    A. E. DePrince, M. Saitow, U. Bozkaya, A. Yu. Sokolov
    -----------------------------------------------------------------------

    Process ID:  10138
    PSI4DATADIR: /home/ugur/psi4/lib

    Using LocalCommunicator (Number of processes = 1)

    Memory level set to 256.000 MB

  ==> Input File <==

--------------------------------------------------------------------------
#! OCEPA cc-pVDZ gradient for the H2O molecule.

ref_vals = [                                                       #TEST
             [ 0.000000000000,  0.000000000000,  0.013951362724],  #TEST
             [ 0.000000000000,  0.003301560792, -0.006975681362],  #TEST
             [ 0.000000000000, -0.003301560792, -0.006975681362]   #TEST
           ]                                                       #TEST
ref = PsiMod.Matrix(3, 3)                                          #TEST
ref.set(ref_vals)

memory 250 mb

molecule h2o {
0 1
o
h 1 0.958
h 1 0.958 2 104.4776 
}

set {
  basis cc-pvdz
}
gradient('ocepa')

grad = PsiMod.wavefunction().gradient()                           #TEST
compare_matrices(ref, grad, 6, "Analytic gradients")              #TEST

--------------------------------------------------------------------------

  Memory set to 250.000 MiB by Python script.

*** tstart() called on bozkaya
*** at Thu Mar 28 17:35:37 2013


         ---------------------------------------------------------
                                   SCF
            by Justin Turney, Rob Parrish, and Andy Simmonett
                              RHF Reference
                        4 Threads,    250 MiB Core
         ---------------------------------------------------------

  ==> Geometry <==

    Molecular point group: c2v
    Full point group: C2v

    Geometry (in Angstrom), charge = 0, multiplicity = 1:

       Center              X                  Y                   Z       
    ------------   -----------------  -----------------  -----------------
           O          0.000000000000     0.000000000000    -0.065655108074
           H          0.000000000000    -0.757365949175     0.520997104936
           H          0.000000000000     0.757365949175     0.520997104936

  Running in c2v symmetry.

  Nuclear repulsion =    9.187386421477592

  Charge       = 0
  Multiplicity = 1
  Electrons    = 10
  Nalpha       = 5
  Nbeta        = 5

  ==> Algorithm <==

  SCF Algorithm Type is PK.
  DIIS enabled.
  MOM disabled.
  Fractional occupation disabled.
  Guess Type is CORE.
  Energy threshold   = 1.00e-10
  Density threshold  = 1.00e-10
  Integral threshold = 0.00e+00

  ==> Primary Basis <==

  Basis Set: CC-PVDZ
    Number of shells: 12
    Number of basis function: 24
    Number of Cartesian functions: 25
    Spherical Harmonics?: true
    Max angular momentum: 2

  ==> Pre-Iterations <==

   -------------------------------------------------------
    Irrep   Nso     Nmo     Nalpha   Nbeta   Ndocc  Nsocc
   -------------------------------------------------------
     A1        11      11       0       0       0       0
     A2         2       2       0       0       0       0
     B1         4       4       0       0       0       0
     B2         7       7       0       0       0       0
   -------------------------------------------------------
    Total      24      24       5       5       5       0
   -------------------------------------------------------

  ==> Integral Setup <==

 MINTS: Wrapper to libmints.
   by Justin Turney

   Calculation information:
      Number of atoms:                   3
      Number of AO shells:              12
      Number of SO shells:               9
      Number of primitives:             32
      Number of atomic orbitals:        25
      Number of basis functions:        24

      Number of irreps:                  4
      Number of functions per irrep: [  11    2    4    7 ]

      Overlap, kinetic, potential, dipole, and quadrupole integrals
        stored in file 35.

      Computing two-electron integrals...done
      Computed 11412 non-zero two-electron integrals.
        Stored in file 33.

	Batch   1 pq = [       0,     107] index = [             0,5778]
  ==> DiskJK: Disk-Based J/K Matrices <==

    J tasked:                  Yes
    K tasked:                  Yes
    wK tasked:                  No
    Memory (MB):               178
    Schwarz Cutoff:          0E+00

  Minimum eigenvalue in the overlap matrix is 3.4230868664E-02.
  Using Symmetric Orthogonalization.
  SCF Guess: Core (One-Electron) Hamiltonian.

  Guess energy:   -58.56332129244270

  ==> Iterations <==

                        Total Energy        Delta E     RMS |[F,P]|

	Occupation by irrep:
	         A1    A2    B1    B2 
	DOCC [     3,    0,    0,    2 ]

   @RHF iter   1:   -68.87414405851875   -6.88741e+01   2.25267e-01 
	Occupation by irrep:
	         A1    A2    B1    B2 
	DOCC [     3,    0,    1,    1 ]

   @RHF iter   2:   -69.94961388024056   -1.07547e+00   1.83937e-01 DIIS
   @RHF iter   3:   -75.73691793435383   -5.78730e+00   6.33065e-02 DIIS
   @RHF iter   4:   -76.00165601705385   -2.64738e-01   1.71675e-02 DIIS
   @RHF iter   5:   -76.02647588165971   -2.48199e-02   1.54305e-03 DIIS
   @RHF iter   6:   -76.02671906756548   -2.43186e-04   6.80188e-04 DIIS
   @RHF iter   7:   -76.02675940507511   -4.03375e-05   9.53593e-05 DIIS
   @RHF iter   8:   -76.02676100593207   -1.60086e-06   3.20127e-05 DIIS
   @RHF iter   9:   -76.02676109481274   -8.88807e-08   1.84393e-06 DIIS
   @RHF iter  10:   -76.02676109554524   -7.32499e-10   6.60581e-07 DIIS
   @RHF iter  11:   -76.02676109559289   -4.76490e-11   1.18001e-07 DIIS
   @RHF iter  12:   -76.02676109559418   -1.29319e-12   8.37834e-09 DIIS
   @RHF iter  13:   -76.02676109559420   -1.42109e-14   9.39245e-10 DIIS
   @RHF iter  14:   -76.02676109559427   -7.10543e-14   1.23586e-10 DIIS
   @RHF iter  15:   -76.02676109559421    5.68434e-14   7.78187e-12 DIIS

  ==> Post-Iterations <==

	Orbital Energies (a.u.)
	-----------------------

	Doubly Occupied:                                                      

	   1A1   -20.550579     2A1    -1.336336     1B2    -0.698827  
	   3A1    -0.566506     1B1    -0.493105  

	Virtual:                                                              

	   4A1     0.185436     2B2     0.256147     3B2     0.788656  
	   5A1     0.853784     6A1     1.163587     2B1     1.200369  
	   4B2     1.253383     7A1     1.444392     1A2     1.476182  
	   3B1     1.674338     8A1     1.867382     5B2     1.934293  
	   6B2     2.451040     9A1     2.488585     4B1     3.285193  
	   2A2     3.338052    10A1     3.509722    11A1     3.864815  
	   7B2     4.146867  

	Final Occupation by Irrep:
	         A1    A2    B1    B2 
	DOCC [     3,    0,    1,    1 ]

  Energy converged.

  @RHF Final Energy:   -76.02676109559421

   => Energetics <=

    Nuclear Repulsion Energy =              9.1873864214775924
    One-Electron Energy =                -123.1375893554426568
    Two-Electron Energy =                  37.9234418383708487
    DFT Exchange-Correlation Energy =       0.0000000000000000
    Empirical Dispersion Energy =           0.0000000000000000
    Total Energy =                        -76.0267610955942104



Properties will be evaluated at   0.000000,   0.000000,   0.000000 Bohr
  ==> Properties <==


Properties computed using the SCF density density matrix
  Nuclear Dipole Moment: (a.u.)
     X:     0.0000      Y:     0.0000      Z:     0.9765

  Electronic Dipole Moment: (a.u.)
     X:     0.0000      Y:     0.0000      Z:    -0.1670

  Dipole Moment: (a.u.)
     X:     0.0000      Y:     0.0000      Z:     0.8095     Total:     0.8095

  Dipole Moment: (Debye)
     X:     0.0000      Y:     0.0000      Z:     2.0576     Total:     2.0576


  Saving occupied orbitals to File 180.

*** tstop() called on bozkaya at Thu Mar 28 17:35:37 2013
Module time:
	user time   =       0.25 seconds =       0.00 minutes
	system time =       0.01 seconds =       0.00 minutes
	total time  =          0 seconds =       0.00 minutes
Total time:
	user time   =       0.25 seconds =       0.00 minutes
	system time =       0.01 seconds =       0.00 minutes
	total time  =          0 seconds =       0.00 minutes

*** tstart() called on bozkaya
*** at Thu Mar 28 17:35:37 2013



  Options:
  ----------------------------------------------------------------------------
  BENCH                  => 0                
  CACHELEVEL             => 2                
  CCL_ENERGY             => FALSE            
  CC_DIIS_MAX_VECS       => 6                
  CC_DIIS_MIN_VECS       => 2                
  CC_MAXITER             => 50               
  CEPA_OS_SCALE          => 1.27             
  CEPA_SOS_SCALE         => 1.3              
  CEPA_SS_SCALE          => 1.13             
  CEPA_TYPE              => CEPA0            
  CUTOFF                 => 14               
  DEBUG                  => 0                
  DERTYPE                => FIRST           !
  DIE_IF_NOT_CONVERGED   => TRUE             
  DOCC                   => [  ]             
  DO_DIIS                => TRUE             
  DO_LEVEL_SHIFT         => FALSE            
  DO_SCS                 => FALSE            
  DO_SOS                 => FALSE            
  E3_SCALE               => 0.25             
  EA_POLES               => FALSE            
  EKT_EA                 => FALSE            
  EKT_IP                 => FALSE            
  EP_EA_POLES            => FALSE            
  EP_IP_POLES            => FALSE            
  EP_MAXITER             => 30               
  E_CONVERGENCE          => 1e-08            
  FREEZE_CORE            => FALSE            
  FROZEN_DOCC            => [  ]             
  FROZEN_UOCC            => [  ]             
  IP_POLES               => FALSE            
  LEVEL_SHIFT            => 0.02             
  LINEQ_SOLVER           => CDGESV           
  MAT_NUM_COLUMN_PRINT   => 5                
  MAX_MOGRAD_CONVERGENCE => 0.001            
  MOGRAD_DAMPING         => 1                
  MO_DIIS_NUM_VECS       => 6                
  MO_MAXITER             => 50               
  MO_READ                => FALSE            
  MO_STEP_MAX            => 0.5              
  MO_WRITE               => FALSE            
  MP2_OS_SCALE           => 1.2              
  MP2_SOS_SCALE          => 1.3              
  MP2_SOS_SCALE2         => 1.2              
  MP2_SS_SCALE           => 0.333333         
  NAT_ORBS               => FALSE            
  NUM_FROZEN_DOCC        => 0                
  NUM_FROZEN_UOCC        => 0                
  OCC_ORBS_PRINT         => FALSE            
  OPT_METHOD             => ORB_RESP         
  ORB_OPT                => TRUE             
  ORB_RESP_SOLVER        => PCG              
  ORTH_TYPE              => MGS              
  PCG_BETA_TYPE          => FLETCHER_REEVES  
  PCG_CONVERGENCE        => 1e-06            
  PCG_MAXITER            => 30               
  PRINT                  => 1                
  PROPERTIES             => [  ]             
  PROPERTIES_ORIGIN      => [  ]             
  PUREAM                 => TRUE             
  RMS_MOGRAD_CONVERGENCE => 1e-05            
  R_CONVERGENCE          => 1e-05            
  SCS_TYPE               => SCS              
  SOCC                   => [  ]             
  SOS_TYPE               => SOS              
  TPDM_ABCD_TYPE         => DIRECT           
  UNITS                  => ANGSTROMS        
  WFN                    => SCF              
  WFN_TYPE               => OCEPA           !
  WRITER_FILE_LABEL      => (empty)          


 ============================================================================== 
 ============================================================================== 
 ============================================================================== 

                       OCEPA (OO-CEPA)   
              Program Written by Ugur Bozkaya,
              Latest Revision March 26, 2013.

 ============================================================================== 
 ============================================================================== 
 ============================================================================== 

	MO spaces per irreps... 

	IRREP   FC    OCC   VIR  FV 
	==============================
	  A1     0     3     8    0
	  A2     0     0     2    0
	  B1     0     1     3    0
	  B2     0     1     6    0
	==============================

	Computing MP2 energy using SCF MOs (Canonical MP2)... 
	============================================================================== 
	Nuclear Repulsion Energy (a.u.)    : 9.18738642147759
	SCF Energy (a.u.)                  : -76.02676109559421
	REF Energy (a.u.)                  : -76.02676109559422
	Alpha-Alpha Contribution (a.u.)    : -0.02576501624001
	Alpha-Beta Contribution (a.u.)     : -0.15248920680919
	Beta-Beta Contribution (a.u.)      : -0.02576501624001
	Scaled_SS Correlation Energy (a.u.): -0.01717667749334
	Scaled_OS Correlation Energy (a.u.): -0.18298704817103
	SCS-MP2 Total Energy (a.u.)        : -76.22692482125858
	SOS-MP2 Total Energy (a.u.)        : -76.22499706444617
	SCSN-MP2 Total Energy (a.u.)       : -76.11745395275906
	SCS-MI-MP2 Total Energy (a.u.)     : -76.15423052021711
	SCS-MP2-VDW Total Energy (a.u.)    : -76.24771229654999
	SOS-PI-MP2 Total Energy (a.u.)     : -76.24024598512709
	MP2 Correlation Energy (a.u.)      : -0.20401923928921
	MP2 Total Energy (a.u.)            : -76.23078033488343
	============================================================================== 

	Number of independent-pairs:  33

 ============================================================================== 
 ================ Performing OCEPA iterations... ============================== 
 ============================================================================== 
	            Minimizing CEPA-L Functional 
	            --------------------------- 
 Iter       E_total           DE           RMS MO Grad      MAX MO Grad      RMS T2    
 ----    ---------------    ----------     -----------      -----------     ---------- 
   1     -76.2381351095     -7.35e-03       2.07e-04         3.57e-03        1.07e-05 
   2     -76.2415668178     -3.43e-03       7.15e-05         1.02e-03        4.11e-06 
   3     -76.2425075263     -9.41e-04       2.77e-05         4.14e-04        1.68e-06 
   4     -76.2428634867     -3.56e-04       1.15e-05         1.85e-04        7.48e-07 
   5     -76.2430049685     -1.41e-04       5.21e-06         8.06e-05        3.42e-07 

 ============================================================================== 
 ======================== OCEPA ITERATIONS ARE CONVERGED ====================== 
 ============================================================================== 

	Orbitals are optimized now.
	Switching to the standard CEPA computation... 

  
 ============================================================================== 
 ================ Performing CEPA iterations... =============================== 
 ============================================================================== 

  Iter    E_corr           E_total            DE           T2 RMS        
  ----   -------------    ---------------    ----------   ----------    
   1     -0.2163036980    -76.2430647936     -5.98e-05     1.58e-07 
   2     -0.2163521035    -76.2431131991     -4.84e-05     7.48e-08 
   3     -0.2163501470    -76.2431112426      1.96e-06     5.76e-09 
   4     -0.2163503602    -76.2431114558     -2.13e-07     6.39e-10 
   5     -0.2163503447    -76.2431114403      1.55e-08     6.74e-11 
   6     -0.2163503449    -76.2431114405     -2.22e-10     1.38e-11 

 ============================================================================== 
 ======================== CEPA ITERATIONS ARE CONVERGED ======================= 
 ============================================================================== 

	============================================================================== 
	================ OCEPA FINAL RESULTS ========================================= 
	============================================================================== 
	Nuclear Repulsion Energy (a.u.)    : 9.18738642147759
	SCF Energy (a.u.)                  : -76.02676109559421
	REF Energy (a.u.)                  : -76.02605950430771
	SCS-OCEPA(0) Total Energy (a.u.)   : -76.29527597070492
	SOS-OCEPA(0) Total Energy (a.u.)   : -76.24843173330819
	OCEPA(0) Correlation Energy (a.u.) : -0.21635034489887
	Eocepa - Eref (a.u.)               : -0.21705193618537
	OCEPA(0) Total Energy (a.u.)       : -76.24311144049308
	============================================================================== 

	Analytic gradient computation is starting...
	Necessary information has been sent to DERIV, which will take care of the rest.

*** tstop() called on bozkaya at Thu Mar 28 17:35:38 2013
Module time:
	user time   =       0.47 seconds =       0.01 minutes
	system time =       0.09 seconds =       0.00 minutes
	total time  =          1 seconds =       0.02 minutes
Total time:
	user time   =       0.72 seconds =       0.01 minutes
	system time =       0.10 seconds =       0.00 minutes
	total time  =          1 seconds =       0.02 minutes

*** tstart() called on bozkaya
*** at Thu Mar 28 17:35:38 2013

 DERIV: Derivative code.
   by Justin Turney

  Cartesian Displacement SALCs
  By SALC:
  Number of SALCs: 3, nirreps: 1
  Project out translations: False
  Project out rotations: False
	irrep = 0, ncomponent = 1
		0: atom 0, direction z, coef 1.000000
	irrep = 0, ncomponent = 2
		0: atom 1, direction y, coef 0.707107
		1: atom 2, direction y, coef -0.707107
	irrep = 0, ncomponent = 2
		0: atom 1, direction z, coef 0.707107
		1: atom 2, direction z, coef 0.707107

  By Atomic Center:
  Number of atomic centers: 3
   Atomic Center 0:
	x component, size = 0
	y component, size = 0
	z component, size = 1
		0: salc 0, irrep 0, coef 1.000000
   Atomic Center 1:
	x component, size = 0
	y component, size = 1
		0: salc 1, irrep 0, coef 0.707107
	z component, size = 1
		0: salc 2, irrep 0, coef 0.707107
   Atomic Center 2:
	x component, size = 0
	y component, size = 1
		0: salc 1, irrep 0, coef -0.707107
	z component, size = 1
		0: salc 2, irrep 0, coef 0.707107

    Molecular point group: c2v
    Full point group: C2v

    Geometry (in Bohr), charge = 0, multiplicity = 1:

       Center              X                  Y                   Z       
    ------------   -----------------  -----------------  -----------------
           O          0.000000000000     0.000000000000    -0.124070173485
           H          0.000000000000    -1.431214226314     0.984541844356
           H          0.000000000000     1.431214226314     0.984541844356

	Presorting MO-basis TPDM.
	Sorting File: MO TPDM (AA|AA) nbuckets = 1
	Starting first half-transformation.
	Sorting half-transformed TPDM.
	First half integral transformation complete.


  -Nuclear Repulsion Energy 1st Derivatives:
     Atom            X                  Y                   Z
    ------   -----------------  -----------------  -----------------
       1        0.000000000000     0.000000000000     2.989554195418
       2        0.000000000000     2.051800004663    -1.494777097709
       3        0.000000000000    -2.051800004663    -1.494777097709


  -One-electron contribution to gradient:
     Atom            X                  Y                   Z
    ------   -----------------  -----------------  -----------------
       1        0.000000000000     0.000000000000    -7.460826973585
       2        0.000000000000    -4.979692498966     3.730413486792
       3        0.000000000000     4.979692498966     3.730413486792


  -Lagrangian contribution to gradient:
     Atom            X                  Y                   Z
    ------   -----------------  -----------------  -----------------
       1        0.000000000000     0.000000000000     0.469882669767
       2        0.000000000000     0.287060633462    -0.234941334883
       3        0.000000000000    -0.287060633462    -0.234941334883


  -Two-electron contribution to gradient:
     Atom            X                  Y                   Z
    ------   -----------------  -----------------  -----------------
       1        0.000000000000     0.000000000000     4.015341471124
       2        0.000000000000     2.644133421633    -2.007670735562
       3        0.000000000000    -2.644133421633    -2.007670735562


  -Total gradient:
     Atom            X                  Y                   Z
    ------   -----------------  -----------------  -----------------
       1        0.000000000000     0.000000000000     0.013951362724
       2        0.000000000000     0.003301560792    -0.006975681362
       3        0.000000000000    -0.003301560792    -0.006975681362


*** tstop() called on bozkaya at Thu Mar 28 17:35:38 2013
Module time:
	user time   =       0.23 seconds =       0.00 minutes
	system time =       0.01 seconds =       0.00 minutes
	total time  =          0 seconds =       0.00 minutes
Total time:
	user time   =       0.95 seconds =       0.02 minutes
	system time =       0.11 seconds =       0.00 minutes
	total time  =          1 seconds =       0.02 minutes

*** PSI4 exiting successfully. Buy a developer a beer!
