    -----------------------------------------------------------------------
          PSI4: An Open-Source Ab Initio Electronic Structure Package
                              PSI 4.0.0-beta4+ Driver

               Git: Rev {c4} ef7097b1d82a7804b2d78ad28247f837c1527697

    J. M. Turney, A. C. Simmonett, R. M. Parrish, E. G. Hohenstein,
    F. A. Evangelista, J. T. Fermann, B. J. Mintz, L. A. Burns, J. J. Wilke,
    M. L. Abrams, N. J. Russ, M. L. Leininger, C. L. Janssen, E. T. Seidl,
    W. D. Allen, H. F. Schaefer, R. A. King, E. F. Valeev, C. D. Sherrill,
    and T. D. Crawford, WIREs Comput. Mol. Sci., (2011) (doi: 10.1002/wcms.93)

                         Additional Contributions by
    A. E. DePrince, M. Saitow, U. Bozkaya, A. Yu. Sokolov
    -----------------------------------------------------------------------

    Process ID:  16594
    PSI4DATADIR: /theoryfs2/ds/loriab/chem/psi4_trials/c4/psi4/lib

    Using LocalCommunicator (Number of processes = 1)

    Memory level set to 256.000 MB

  ==> Input File <==

--------------------------------------------------------------------------
#! single-point CCSD(T)/qz2p

print '        <<< Literal ZMAT to Cfour >>>'

cfour {
UHF-CCSD(T) energy calculation 
N
H 1 R
H 1 R 2 A

R=1.008
A=105.0

*ACES2(CALC=CCSD(T),BASIS=qz2p
MULT=2,REF=UHF
OCCUPATION=3-1-1-0/3-0-1-0
SCF_CONV=12
PRINT=2
CC_CONV=12
MEMORY=20000000)
}

energy('cfour')

compare_values(-55.5893469688, get_variable('scf total energy'), 6, 'SCF')  #TEST
compare_values(-55.784877360093, get_variable('mp2 total energy'), 6, 'MP2')  #TEST
compare_values(-55.802645023958, get_variable('ccsd total energy'), 6, 'CCSD')  #TEST
compare_values(-0.213298055172, get_variable('ccsd correlation energy'), 6, 'CCSD corl')  #TEST
compare_values(-0.173390809645, get_variable('ccsd opposite-spin energy'), 6, 'CCSD OS corl')  #TEST
compare_values(-0.039907245528, get_variable('ccsd same-spin energy'), 6, 'CCSD SS corl')  #TEST
compare_values(-55.807811611842, get_variable('ccsd(t) total energy'), 6, 'CCSD(T)')  #TEST
compare_values(-0.2184646435, get_variable('ccsd(t) correlation energy'), 6, 'CCSD(T) corl')  #TEST
compare_values(-0.0051665879, get_variable('(t) correction energy'), 6, '(T)')  #TEST

compare_values(-55.5893469688, get_variable('current reference energy'), 6, 'Current ref')  #TEST
compare_values(-0.2184646435, get_variable('current correlation energy'), 6, 'Current corl')  #TEST
compare_values(-55.807811611842, get_variable('current energy'), 6, 'Current')  #TEST

clean()
clean_variables()
cfour {}

print '        <<< Translation of ZMAT to Psi4 format to Cfour >>>'

banner('UHF-CCSD(T) energy calculation')

molecule {
0 2
N
H 1 R
H 1 R 2 A

R=1.008
A=105.0
}

set {
cfour_CALC_level=CCSD(T)
cfour_BASIS=qz2p
cfour_MULTiplicity=2
cfour_REFerence=UHF
cfour_OCCUPATION= [[3,1 ,1, 0] ,[ 3,0 ,1,0]    ]
cfour_SCF_CONV=12
cfour_PRINT=2
cfour_CC_CONV=12
}

energy('cfour')

compare_values(-55.5893469688, get_variable('scf total energy'), 6, 'SCF')  #TEST
compare_values(-55.784877360093, get_variable('mp2 total energy'), 6, 'MP2')  #TEST
compare_values(-55.802645023958, get_variable('ccsd total energy'), 6, 'CCSD')  #TEST
compare_values(-0.213298055172, get_variable('ccsd correlation energy'), 6, 'CCSD corl')  #TEST
compare_values(-0.173390809645, get_variable('ccsd opposite-spin energy'), 6, 'CCSD OS corl')  #TEST
compare_values(-0.039907245528, get_variable('ccsd same-spin energy'), 6, 'CCSD SS corl')  #TEST
compare_values(-55.807811611842, get_variable('ccsd(t) total energy'), 6, 'CCSD(T)')  #TEST
compare_values(-0.2184646435, get_variable('ccsd(t) correlation energy'), 6, 'CCSD(T) corl')  #TEST
compare_values(-0.0051665879, get_variable('(t) correction energy'), 6, '(T)')  #TEST

compare_values(-55.5893469688, get_variable('current reference energy'), 6, 'Current ref')  #TEST
compare_values(-0.2184646435, get_variable('current correlation energy'), 6, 'Current corl')  #TEST
compare_values(-55.807811611842, get_variable('current energy'), 6, 'Current')  #TEST

--------------------------------------------------------------------------

  GENBAS loaded from /theoryfs2/ds/cdsgroup/scripts/bin/GENBAS
  CFOUR to be run from /scratch/loriab//psi.16594..cfour.41804
 --invoking executable xjoda


   *************************************************************************
         <<<     CCCCCC     CCCCCC   |||     CCCCCC     CCCCCC   >>>
       <<<      CCC        CCC       |||    CCC        CCC         >>>
      <<<      CCC        CCC        |||   CCC        CCC            >>>
    <<<        CCC        CCC        |||   CCC        CCC              >>>
      <<<      CCC        CCC        |||   CCC        CCC            >>>
       <<<      CCC        CCC       |||    CCC        CCC         >>>
         <<<     CCCCCC     CCCCCC   |||     CCCCCC     CCCCCC   >>>
   *************************************************************************

     ****************************************************************
     * CFOUR Coupled-Cluster techniques for Computational Chemistry *
     ****************************************************************
 

   Department of Chemistry                Institut fuer Physikalische Chemie
   University of Texas at Austin          Universitaet Mainz
   Austin, TX  48792, USA                 D-55099 Mainz, Germany
 
                       version 1.2
 
                     john3                                             
                     Mon Oct 14 02:47:38 EDT 2013                      
                     integer*8 version is running
 
    -------------------------------------------------------------------
                    Input from ZMAT file
    -------------------------------------------------------------------
 
                                                                                
 UHF-CCSD(T) energy calculation                                                 
 N                                                                              
 H 1 R                                                                          
 H 1 R 2 A                                                                      
                                                                                
 R=1.008                                                                        
 A=105.0                                                                        
                                                                                
 *ACES2(CALC=CCSD(T),BASIS=qz2p                                                 
 MULT=2,REF=UHF                                                                 
 OCCUPATION=3-1-1-0/3-0-1-0                                                     
 SCF_CONV=12                                                                    
 PRINT=2                                                                        
 CC_CONV=12                                                                     
 MEMORY=20000000)                                                               
                                                                                
 
    -------------------------------------------------------------------
                    CFOUR Control Parameters 
    -------------------------------------------------------------------
        External           Internal           Value            Units
          Name               Name
    -------------------------------------------------------------------
       PRINT                IPRNT               2               ***   
       CALCLEVEL            ICLLVL           CCSD(T)    [ 22]   ***   
       DERIV_LEV            IDRLVL            ZERO      [  0]   ***   
       CC_CONV              ICCCNV          10D- 12             ***   
       SCF_CONV             ISCFCV          10D- 12             ***   
       XFORM_TOL            IXFTOL          10D- 11             ***   
       CC_MAXCYC            ICCCYC             50              cycles 
       LINDEP_TOL           ILINDP              8               ***   
       RDO                  IRDOFM             OFF      [  0]   ***   
  
       SCF_EXTRAPO          IRPP                ON      [  1]   ***   
       REFERENCE            IREFNC             UHF      [  1]   ***   
       CC_EXPORDER          ICCEOR              5               ***   
       TAMP_SUM             IEVERY              5               ***   
       NTOP_TAMP            ITOPT2             15               ***   
       CCORBOPT             ICCORB             OFF      [  0] x 0.01  
       SCF_MAXCYC           ISCFCY            150              cycles 
       OCCUPATION           IOCCU  A   3,  1,  1,  0,
                                   B   3,  0,  1,  0,
       PROPS                IPROPS             OFF      [  0]   ***   
       RELAX_DENS           IRDENS             OFF      [  0]   ***   
  
       SCF_EXPORDE          IRPPOR              6               ***   
       CC_EXTRAPOL          ICCEXT             DIIS     [  1]   ***   
       BRUECKNER            IBRKNR             OFF      [  0]   ***   
       XFIELD               IXEFLD              0             x 10-6  
       YFIELD               IYEFLD              0             x 10-6  
       ZFIELD               IZEFLD              0             x 10-6  
       SAVE_INTS            ISVINT             OFF      [  0]   ***   
       DROPMO               IDRPMO      NONE         
       CHARGE               ICHRGE              0               ***   
       MULTIPLICTY          IMULTP              2               ***   
  
       CPHF_CONVER          ICPHFT          10D- 16             ***   
       CPHF_MAXCYC          ICPHFC             64              cycles 
       INCORE               INCORE             OFF      [  0]   ***   
       MEMORY_SIZE          IMEMSZ          20000000           words  
       FILE_RECSIZ          IFLREC              4096           words  
       NON-HF               INONHF             OFF      [  0]   ***   
       ORBITALS             IORBTP           STANDARD   [  0]   ***   
  
       SCF_EXPSTAR          IRPPLS              8               ***   
       LOCK_ORBOCC          ILOCOC             OFF      [  0]   ***   
       HBAR                 IHBAR              OFF      [  0]   ***   
       CACHE_RECS           ICHREC             10               ***   
       GUESS                IGUESS            MOREAD    [  0]   ***   
       JODA_PRINT           IJPRNT              0               ***   
       GEO_METHOD           INR            SINGLE_POINT [  5]   ***   
       GEO_CONV             ICONTL              5              H/bohr 
       EIGENVECTOR          IVEC                1               ***   
  
       NEGEVAL              IDIE             ABORT      [  0]   ***   
       CURVILINEAR          ICURVY            OFF       [  0]   ***   
       SCALE_ON             ISTCRT              0               ***   
       GEO_MAXSTEP          IMXSTP            300            millibohr
       VIBRATION            IVIB              NO        [  0]   ***   
       EVAL_HESS            IRECAL              0            # of cyc.
       INTEGRALS            INTTYP             VMOL     [  1]   ***   
       FD_STEPSIZE          IDISFD              0            10-4 bohr
       POINTS               IGRDFD              0               ***   
       CONTRACTION          ICNTYP          GENERAL     [  1]   ***   
  
       SYMMETRY             ISYM             ON         [  0]   ***   
       BASIS                IBASIS         qz2p         [ 32]   ***   
       SPHERICAL            IDFGHI             ON       [  1]   ***   
       RESET_FLAGS          IRESET             OFF      [  0]   ***   
       PERT_ORB             IPTORB         STANDARD     [  0]   ***   
       GENBAS_1             IGNBS1              0               ***   
       GENBAS_2             IGNBS2              0               ***   
       GENBAS_3             IGNBS3              0               ***   
       COORDINATES          ICOORD         INTERNAL     [  0]   ***   
       SYM_CHECK            ISYMCK         OVERRIDE     [  1]   ***   
  
       SCF_PRINT            ISCFPR              0               ***   
       ECP                  IECP           OFF          [  0]   ***   
       RESTART_CC           ICCRES         OFF          [  0]   ***   
       TRANS_INV            ITRAIN         USE          [  0]   ***   
       HFSTABILITY          ISTABL         OFF          [  0]   ***   
       ROT_EVEC             ROTVEC              0               ***   
       BRUCK_CONV           IBRTOL          10D-  4             ***   
       UNITS                IUNITS         ANGSTROM     [  0]   ***   
       FD_USEGROUP          IFDGRP         FULL         [  0]   ***   
  
       FD_PROJECT           IFDPRJ         ON           [  0]   ***   
       FD_CALTYPE           IFDCAL         GRADONLY     [  0]   ***   
       VTRAN                IVTRAN         FULL/PARTIAL [  0]   ***   
       HF2_FILE             IHF2Fl         USE          [  1]   ***   
       SUBGROUP             ISUBGP         DEFAULT      [  0]   ***   
       SUBGRPAXIS           ISBXYZ         X            [  0]   ***   
       EXCITE               IEXCIT         NONE         [  0]   ***   
       LINEQ_CONV           IZTACN          10D-  7           cycles  
  
       TREAT_PERT           ITREAT         SIMULTANEOUS [  0]   ***   
       ESTATE_PROP          IEXPRP         OFF          [  0]   ***   
       GEO_MAXCYC           IOPTCY             50               ***   
       ABCDTYPE             IABCDT         STANDARD     [  0]   ***   
       AO_LADDERS           IAOLAD         SINGLEPASS   [  1]   ***   
       FOCK                 IFOCK          AO           [  1]   ***   
       ESTATE_MAXC          IEXMXC             20               ***   
       ESTATE_CONV          IEXTOL          10D-  5             ***   
       DIRECT               IDIRCT         OFF          [  0]   ***   
  
       GAMMA_ABCD           IGABCD         STORE        [  0]   ***   
       LINEQ_TYPE           ILTYPE         DIIS         [  1]   ***   
       LINEQ_MAXCY          ILMAXC             50               ***   
       TRANGRAD             IRESRM         OFF          [  0]   ***   
       PSI                  IPSI           OFF          [  0]   ***   
       GAMMA_ABCI           IGABCI         STORE        [  0]   ***   
       ESTATE_DIAG          IEXDIG         ITERATIVE    [  0]   ***   
       FC_FIELD             IFINFC              0             x 10-6  
       SD_FIELD             IFINSD              0             x 10-6  
       DIFF_TYPE            IDIFTY         RELAXED      [  0]   ***   
  
       LINEQ_EXPOR          ILMAXD              5               ***   
       FINITE_PERT          IFIPER              0             x 10-6  
       ANHARMONIC           IANHAR         OFF          [  0]   ***   
       CC_PROGRAM           ICCPRO         VCC          [  0]   ***   
       OPEN-SHELL           IOPEN          SPIN-ORBITAL [  0]   ***   
       UIJ_THRESHO          IUIJTH             25               ***   
       SCF_DAMPING          IDAMP               0             x 10-3  
       PROP_INTEGR          IINTYP         INTERNAL     [  0]   ***   
       ANH_SYMMETR          IANHSM         ABELIAN      [  0]   ***   
       ANH_ALGORIT          IANALG         STANDARD     [  0]   ***   
  
       EOM_NONIT            EOMNON         OFF          [  0]   ***   
       VIB_ALGORIT          IGEALG         STANDARD     [  0]   ***   
       ANH_DERIVAT          IANDER         SECOND       [  1]   ***   
       SPINROTATIO          ISRCON         OFF          [  0]   ***   
       CIS_CONV             ICISTL              5               ***   
       ANH_STEPSIZ          ICUBST             50000          x 10-6  
       SPIN_FLIP            ISPFLP         OFF          [  0]   ***   
       GRID                 IGRID          OFF          [  0]   ***   
  
       DBOC                 IDBOC          OFF          [  0]   ***   
       EOMFOLLOW            IEOMSR         ENERGY       [  0]   ***   
       T3_EXTRAPOL          IT3EXT         OFF          [  0]   ***   
       ESTATE_LOCK          IESLOC         OFF          [  0]   ***   
       UNOS                 IUNOS          OFF          [  0]   ***   
       FREQ_ALGORI          IVIALG         STANDARD     [  0]   ***   
       RELATIVIST           IRELAT         OFF          [  0]   ***   
       FROZEN_CORE          IFROCO         OFF          [  0]   ***   
       EXCITATION           IEXCIT              0               ***   
       INPUT_MRCC           IMRCC          ON           [  1]   ***   
  
       GIAO                 IGIAO          OFF          [  1]   ***   
       EOM_NSING            IEOMSI          10D-  0             ***   
       EOM_NTRIP            IEOMTR          10D-  0             ***   
       EOM_NSTATES          IMRCCD         DAVIDSON     [  0]   ***   
       DIAG_MRCC            IEOMST          10D-  0             ***   
       NEWNORM              INEWNO         OFF          [  0]   ***   
       TESTSUITE            ITESTS         OFF          [  0]   ***   
       BUFFERSIZE           IBUFFS            600               ***   
       SPINORBIT            ISOCAL         OFF          [  0]   ***   
       DCT                  IDCT           OFF          [  0]   ***   
  
       PARALLEL             IPARAL         ON           [  1]   ***   
       PARA_PRINT           IPPRIN              0               ***   
       COMM_SIZE            IPSIZE            ***               ***   
       PARA_INT             IPINTS         ON           [  1]   ***   
       RAMAN_INT            IRAMIN         OFF          [  0]   ***   
       RAMAN_ORB            IRAMRE         UNRELAXED    [  0]   ***   
       BREIT                IBREIT         OFF          [  0]   ***   
       MEM_UNIT             IMEMU          INTEGERWORDS [  0]   ***   
       SPIN_ORBIT           ISPORB         OFF          [  0]   ***   
       GENBAS_4             IGNBS4              0               ***   
  
       SPIN_SCAL            ISCSMP         OFF          [  0]   ***   
       GRID_ALGO            IGALGO         SERIAL       [  0]   ***   
       VIBPHASE             ISETPH         STANDARD     [  0]   ***   
       SEQUENCE             ISEQUE         OFF          [  0]   ***   
       HESS_TYPE            IHESTP         SCF          [  0]   ***   
       CONTINUUM            ICONTU         NONE         [  0]   ***   
       SCF_NOSTOP           ISCFST         OFF          [  0]   ***   
       CONSTANT             ICONST         OLD          [  1]   ***   
  
       EOM_MRCC             IMRCCE         OLD          [  0]   ***   
       EOM_ORDER            IEXORD         ENERGY       [  0]   ***   
       GIMIC                IGIMIC         OFF          [  0]   ***   
    -------------------------------------------------------------------
   3 entries found in Z-matrix 
   Job Title : UHF-CCSD(T) energy calculation                                                  
   There are  2 unique internal coordinates.
   Of these,  0 will be optimized.
   User supplied Z-matrix: 
--------------------------------------------------------------------------------
       SYMBOL    BOND      LENGTH    ANGLE     ANGLE     DIHED     ANGLE
                  TO      (ANGST)    WRT      (DEG)      WRT      (DEG)
--------------------------------------------------------------------------------
        N    
        H          1         R    
        H          1         R          2        A    
                  *Initial values for internal coordinates* 
                      Name             Value
                        R               1.0080000000
                        A             105.0000000000
--------------------------------------------------------------------------------
  1  N          7    14.00307
  2  H          1     1.00783
  3  H          1     1.00783
   Rotational constants (in cm-1): 
          8.6337537305            13.0775697116            25.4080089639
   Rotational constants (in MHz): 
     258833.4615238860        392055.7317765497        761713.0527317039
********************************************************************************
   The full molecular point group is C2v .
   The largest Abelian subgroup of the full molecular point group is C2v .
   The computational point group is C2v .
********************************************************************************
--------------------------------------------------------------------------------
   Analysis of internal coordinates specified by Z-matrix 
--------------------------------------------------------------------------------
   *The nuclear repulsion energy is    7.68054 a.u.
   *There are   2 degrees of freedom within the tot. symm. molecular subspace.
   *Z-matrix requests optimization of   0 coordinates.
   *The optimization is constrained.
   *The following   2 parameters can have non-zero 
    derivatives within the totally symmetric subspace:
             A    [ 3]  R    [ 2]
   *The following   0 parameters are to be optimized:

   *The following coordinates must be varied in an  unconstrained optimization.
             A    [ 3]  R    [ 2]
--------------------------------------------------------------------------------
 ----------------------------------------------------------------
 Z-matrix   Atomic            Coordinates (in bohr)
  Symbol    Number           X              Y              Z
 ----------------------------------------------------------------
     N         7         0.00000000     0.00000000     0.14591295
     H         1         0.00000000    -1.51121461    -1.01368281
     H         1         0.00000000     1.51121461    -1.01368281
 ----------------------------------------------------------------
   Interatomic distance matrix (Angstroms) 
 
                 N             H             H    
                [ 1]        [ 2]        [ 3]
  N    [ 1]     0.00000
  H    [ 2]     1.00800     0.00000
  H    [ 3]     1.00800     1.59940     0.00000
   Rotational constants (in cm-1): 
          8.6337537305            25.4080089639            13.0775697116
   Rotational constants (in MHz): 
     258833.4615238862        761713.0527317049        392055.7317765501
  There are   48 basis functions.
 @GEOPT-W, Archive file not created for single-point calculation.
                0.12 seconds walltime passed
 --executable xjoda finished with status            0
  flag is                      5
 --invoking executable xvmol
 Serial version of molecule started
 
    -------------------------------------------------------------------
                    Input from MOL file
    -------------------------------------------------------------------
 INTGRL        1    0    1    0    0    0    0    0    0                        
          *** CFOUR Program System (Release V0.1) ***                           
 UHF-CCSD(T) energy calculation                                                 
     2    2 X  Y       0.10E-08              0    0                             
    9999.00      3.00                                                           
           7.00000000    1    3    3    3    2                                  
 N #1      0.000000000000      0.000000000000      0.145912949151               
     6    1                                                                     
    28016.0879410000      -2.032000000000000E-004                               
    4198.96948720000      -1.576600000000000E-003                               
    955.567460800000      -8.214400000000000E-003                               
    270.389752800000      -3.362630000000000E-002                               
    87.7881067000000      -0.112038400000000                                    
    31.0844836000000      -0.293401800000000                                    
     3    3                                                                     
    11.5261308000000        1.00000000000000       0.000000000000000E+000       
   0.000000000000000E+000                                                       
    4.35352640000000       0.000000000000000E+000   1.00000000000000            
   0.000000000000000E+000                                                       
    1.09984640000000       0.000000000000000E+000  0.000000000000000E+000       
    1.00000000000000                                                            
     2    2                                                                     
   0.452092200000000        1.00000000000000       0.000000000000000E+000       
   0.166425000000000       0.000000000000000E+000   1.00000000000000            
     4    1                                                                     
    87.2096736000000      -2.163300000000000E-003                               
    20.4806984000000      -1.608280000000000E-002                               
    6.34676190000000      -6.959799999999999E-002                               
    2.26225060000000      -0.203184300000000                                    
     2    2                                                                     
   0.861569800000000        1.00000000000000       0.000000000000000E+000       
   0.329709500000000       0.000000000000000E+000   1.00000000000000            
     1    1                                                                     
   0.122098700000000        1.00000000000000                                    
     1    1                                                                     
   0.580000000000000        1.00000000000000                                    
     1    1                                                                     
    1.73000000000000        1.00000000000000                                    
           1.00000000    1    2    3    2                                       
 H #2      0.000000000000     -1.511214614188     -1.013682808944               
     4    1                                                                     
    190.691690000000       7.082000000000000E-004                               
    28.6055320000000       5.467900000000000E-003                               
    6.50959430000000       2.796660000000000E-002                               
    1.84124550000000       0.107645380000000                                    
     2    2                                                                     
   0.598537250000000       0.298897100000000       0.000000000000000E+000       
   0.213976240000000       0.000000000000000E+000  0.474068000000000            
     1    1                                                                     
   8.031628600000000E-002   1.00000000000000                                    
     1    1                                                                     
   0.460000000000000        1.00000000000000                                    
     1    1                                                                     
    1.39000000000000        1.00000000000000                                    
 FINISH                                                                         
 
    -------------------------------------------------------------------
 
 One- and two-electron integrals over symmetry-adapted AOs are calculated.

  Spherical harmonics are used.
  
   2 types of atoms
   2 symmetry operations

   Reflection in the YZ-plane
   Reflection in the XZ-plane
  
  Integrals less than  0.10E-13 are neglected.

  Atomic type number  1 :
  -----------------------

    Nuclear charge:                        7
    number of symmetry independent atoms:  1
    highest orbital type:                  d

      3 groups of CGTOs of s type
      3 groups of CGTOs of p type
      2 groups of CGTOs of d type

    nuclear coordinates (in a.u.) are :

    N #1  0.000000000  0.000000000  0.145912949
  
   Basis function not normalized: 
   Center (as ordered in MOL file):   1
   Angular Momentum type          : s
   Offset within angular momentum :  1
   <chi|chi>                      :    2.4130970662
   Basis function not normalized: 
   Center (as ordered in MOL file):   1
   Angular Momentum type          : p
   Offset within angular momentum :  1
   <chi|chi>                      :    3.7689762524
  Atomic type number  2 :
  -----------------------

    Nuclear charge:                        1
    number of symmetry independent atoms:  1
    highest orbital type:                  p

      3 groups of CGTOs of s type
      2 groups of CGTOs of p type

    nuclear coordinates (in a.u.) are :

    H #2  0.000000000 -1.511214614 -1.013682809
  
   Basis function not normalized: 
   Center (as ordered in MOL file):   2
   Angular Momentum type          : s
   Offset within angular momentum :  1
   <chi|chi>                      :    7.5444806023
   Basis function not normalized: 
   Center (as ordered in MOL file):   2
   Angular Momentum type          : s
   Offset within angular momentum :  1
   <chi|chi>                      :    3.3456329954
   Basis function not normalized: 
   Center (as ordered in MOL file):   2
   Angular Momentum type          : s
   Offset within angular momentum :  2
   <chi|chi>                      :    2.1094020267
   Internuclear distances (A) :

     for atom N #1 (coordinates :   0.00000   0.00000   0.14591)

     H #2   1     distance is  1.008

     for atom H #2 (coordinates :   0.00000  -1.51121  -1.01368)

     H #2   3     distance is  1.599

   Group multiplication table :

         1   2   3   4
         2   1   4   3
         3   4   1   2
         4   3   2   1

   Gaussian basis information :

   atom                 exponent      coefficients

 N #1  1    S   
+                 1   28016.087941  -0.0002032
                  2    4198.969487  -0.0015766
                  3     955.567461  -0.0082144
                  4     270.389753  -0.0336263
                  5      87.788107  -0.1120384
                  6      31.084484  -0.2934018

 N #1  1    S   
+                 7      11.526131   1.0000000   0.0000000   0.0000000
                  8       4.353526   0.0000000   1.0000000   0.0000000
                  9       1.099846   0.0000000   0.0000000   1.0000000

 N #1  1    S   
+                10       0.452092   1.0000000   0.0000000
                 11       0.166425   0.0000000   1.0000000

 N #1  1    X   
+                12      87.209674  -0.0021633
                 13      20.480698  -0.0160828
                 14       6.346762  -0.0695980
                 15       2.262251  -0.2031843

 N #1  1    Y   
+                16      87.209674  -0.0021633
                 17      20.480698  -0.0160828
                 18       6.346762  -0.0695980
                 19       2.262251  -0.2031843

 N #1  1    Z   
+                20      87.209674  -0.0021633
                 21      20.480698  -0.0160828
                 22       6.346762  -0.0695980
                 23       2.262251  -0.2031843

 N #1  1    X   
+                24       0.861570   1.0000000   0.0000000
                 25       0.329709   0.0000000   1.0000000

 N #1  1    Y   
+                26       0.861570   1.0000000   0.0000000
                 27       0.329709   0.0000000   1.0000000

 N #1  1    Z   
+                28       0.861570   1.0000000   0.0000000
                 29       0.329709   0.0000000   1.0000000

 N #1  1    X   
+                30       0.122099   1.0000000

 N #1  1    Y   
+                31       0.122099   1.0000000

 N #1  1    Z   
+                32       0.122099   1.0000000

 N #1  1    XX  
+                33       0.580000   1.0000000

 N #1  1    XY  
+                34       0.580000   1.0000000

 N #1  1    XZ  
+                35       0.580000   1.0000000

 N #1  1    YY  
+                36       0.580000   1.0000000

 N #1  1    YZ  
+                37       0.580000   1.0000000

 N #1  1    ZZ  
+                38       0.580000   1.0000000

 N #1  1    XX  
+                39       1.730000   1.0000000

 N #1  1    XY  
+                40       1.730000   1.0000000

 N #1  1    XZ  
+                41       1.730000   1.0000000

 N #1  1    YY  
+                42       1.730000   1.0000000

 N #1  1    YZ  
+                43       1.730000   1.0000000

 N #1  1    ZZ  
+                44       1.730000   1.0000000

 H #2  1    S   
+                45     190.691690   0.0007082
                 46      28.605532   0.0054679
                 47       6.509594   0.0279666
                 48       1.841246   0.1076454

 H #2  3    S   
+                49     190.691690   0.0007082
                 50      28.605532   0.0054679
                 51       6.509594   0.0279666
                 52       1.841246   0.1076454

 H #2  1    S   
+                53       0.598537   0.2988971   0.0000000
                 54       0.213976   0.0000000   0.4740680

 H #2  3    S   
+                55       0.598537   0.2988971   0.0000000
                 56       0.213976   0.0000000   0.4740680

 H #2  1    S   
+                57       0.080316   1.0000000

 H #2  3    S   
+                58       0.080316   1.0000000

 H #2  1    X   
+                59       0.460000   1.0000000

 H #2  3    X   
+                60       0.460000   1.0000000

 H #2  1    Y   
+                61       0.460000   1.0000000

 H #2  3    Y   
+                62       0.460000   1.0000000

 H #2  1    Z   
+                63       0.460000   1.0000000

 H #2  3    Z   
+                64       0.460000   1.0000000

 H #2  1    X   
+                65       1.390000   1.0000000

 H #2  3    X   
+                66       1.390000   1.0000000

 H #2  1    Y   
+                67       1.390000   1.0000000

 H #2  3    Y   
+                68       1.390000   1.0000000

 H #2  1    Z   
+                69       1.390000   1.0000000

 H #2  3    Z   
+                70       1.390000   1.0000000
 50 48
  1  2  3  4  5  6  7  8  9 10 11 12*** 13 14*** 15 16 17 18 19 20 21 22 23
 24 25 26 27 28 29 30 31 32 33 34 35 36 37 38 39 40 41 42 43 44 45 46 47 48
1

             SYMMETRY TRANSFORMATION INFO
             48 SYMMETRY ADAPTED BASIS FUNCTIONS 


          irreducible representation number 1

    1    1  N #1     1s     1   1   1.0
    2    2  N #1     1s     1   2   1.0
    3    3  N #1     1s     1   3   1.0
    4    4  N #1     1s     1   4   1.0
    5    5  N #1     1s     1   5   1.0
    6    6  N #1     1s     1   6   1.0
    7    7  N #1     2pz    1   9   1.0
    8    8  N #1     2pz    1  14   1.0
    9    9  N #1     2pz    1  15   1.0
   10   10  N #1     2pz    1  18   1.0
   11   11  N #1     3d0    3  19  -1.0  22  -1.0  24   2.0
   12   12  N #1     3d2+   2  19   1.0  22  -1.0
   13   13  N #1     3d0    3  25  -1.0  28  -1.0  30   2.0
   14   14  N #1     3d2+   2  25   1.0  28  -1.0
   15   15  H #2     1s     2  31   1.0  32   1.0
   16   16  H #2     1s     2  33   1.0  34   1.0
   17   17  H #2     1s     2  35   1.0  36   1.0
   18   18  H #2     1s     2  37   1.0  38   1.0
   19   19  H #2     2py    2  41   1.0  42  -1.0
   20   20  H #2     2pz    2  43   1.0  44   1.0
   21   21  H #2     2py    2  47   1.0  48  -1.0
   22   22  H #2     2pz    2  49   1.0  50   1.0


          irreducible representation number 2

   23    1  N #1     2px    1   7   1.0
   24    2  N #1     2px    1  10   1.0
   25    3  N #1     2px    1  11   1.0
   26    4  N #1     2px    1  16   1.0
   27    5  N #1     3d1+   1  21   1.0
   28    6  N #1     3d1+   1  27   1.0
   29    7  H #2     2px    2  39   1.0  40   1.0
   30    8  H #2     2px    2  45   1.0  46   1.0


          irreducible representation number 3

   31    1  N #1     2py    1   8   1.0
   32    2  N #1     2py    1  12   1.0
   33    3  N #1     2py    1  13   1.0
   34    4  N #1     2py    1  17   1.0
   35    5  N #1     3d1-   1  23   1.0
   36    6  N #1     3d1-   1  29   1.0
   37    7  H #2     1s     2  31   1.0  32  -1.0
   38    8  H #2     1s     2  33   1.0  34  -1.0
   39    9  H #2     1s     2  35   1.0  36  -1.0
   40   10  H #2     1s     2  37   1.0  38  -1.0
   41   11  H #2     2py    2  41   1.0  42   1.0
   42   12  H #2     2pz    2  43   1.0  44  -1.0
   43   13  H #2     2py    2  47   1.0  48   1.0
   44   14  H #2     2pz    2  49   1.0  50  -1.0


          irreducible representation number 4

   45    1  N #1     3d2-   1  20   1.0
   46    2  N #1     3d2-   1  26   1.0
   47    3  H #2     2px    2  39   1.0  40  -1.0
   48    4  H #2     2px    2  45   1.0  46  -1.0
  Nuclear repulsion energy :    7.6805416353 a.u.
  required memory for a1 array                3002594  words 
  required memory for a2 array                2009125  words 
 basis number:   7    30
 basis number:   1    10
  @MOLECU-I, One electron integrals required         0.01000 seconds.
  @TWOEL-I,      33741 integrals of symmetry type  I I I I
  @TWOEL-I,      70314 integrals of symmetry type  I J I J
  @TWOEL-I,      40169 integrals of symmetry type  I I J J
  @TWOEL-I,      27760 integrals of symmetry type  I J K L
  @TWOEL-I, Total number of 2-e integrals     171984.
  @MOLECU-I, Two electron integrals required         0.26000 seconds.
  @CHECKOUT-I, Total execution time :       0.2800 seconds.
                0.25 seconds walltime passed
 --executable xvmol finished with status            0
 --invoking executable xvmol2ja
  @CHECKOUT-I, Total execution time :       0.0000 seconds.
                0.00 seconds walltime passed
 --executable xvmol2ja finished with status            0
 --invoking executable xvscf
 NSOSCF                     0
  There are   48 functions in the AO basis.

  There are 4 irreducible representations.

       Irrep        # of functions
         1                 22
         2                  8
         3                 14
         4                  4


  Parameters for SCF calculation: 
        SCF reference function:  UHF  
  Maximum number of iterations:  150
     Full symmetry point group: C2v 
     Computational point group: C2v 
        Initial density matrix: MOREAD                 
     SCF convergence tolerance: 10**(-12)
  DIIS convergence acceleration:  ON
          Latest start for DIIS:   8
                     DIIS order:   6

     Alpha population by irrep:   3    1    1    0
      Beta population by irrep:   3    0    1    0


  Memory information:     129881 words required.
  Fock matrices are constructed from AO integral file.
  Initialization and symmetry analysis required      0.000 seconds.

 total no. of electrons in initial guess :  0.000000000000000E+000
 total no. of electrons in initial guess :  0.000000000000000E+000
  --------------------------------------------------------------------
  Iteration         Total Energy            Largest Density Difference
  --------------------------------------------------------------------
       0             7.680541635254568              0.0000000000D+00
   current occupation vector 
     3  1  1  0
     3  0  1  0
  processed                  33741  ao basis integrals from 
                    57  buffers.
  processed                  40169  ao basis integrals from 
                    67  buffers.
  processed                  70314  ao basis integrals from 
                   118  buffers.
       1           -44.130432402828504              0.1028750960D+01
   current occupation vector 
     3  1  1  0
     3  0  1  0
  processed                  33741  ao basis integrals from 
                    57  buffers.
  processed                  40169  ao basis integrals from 
                    67  buffers.
  processed                  70314  ao basis integrals from 
                   118  buffers.
       2           -49.861048008720267              0.2161483170D+01
   current occupation vector 
     3  1  1  0
     3  0  1  0
  processed                  33741  ao basis integrals from 
                    57  buffers.
  processed                  40169  ao basis integrals from 
                    67  buffers.
  processed                  70314  ao basis integrals from 
                   118  buffers.
       3           -53.278192812876839              0.2155744174D+01
   current occupation vector 
     3  1  1  0
     3  0  1  0
  processed                  33741  ao basis integrals from 
                    57  buffers.
  processed                  40169  ao basis integrals from 
                    67  buffers.
  processed                  70314  ao basis integrals from 
                   118  buffers.
       4           -53.881204068799548              0.1909262876D+01
   current occupation vector 
     3  1  1  0
     3  0  1  0
 
 sum over diagonal and offdiagdiagonal of C(T)*S*C                              
                      for irrep                     1
  6.528111384795920E-014 -7.909549029441781E-014
 reorthoganalization of MOs is carried out
 sum over diagonal and offdiagdiagonal of C(T)*S*C                              
                      for irrep                     1
 -1.065814103640150E-014  4.689692966775473E-014
 
 sum over diagonal and offdiagdiagonal of C(T)*S*C                              
                      for irrep                     2
  2.886579864025407E-015  1.244252097187815E-014
 reorthoganalization of MOs is carried out
 sum over diagonal and offdiagdiagonal of C(T)*S*C                              
                      for irrep                     2
 -2.220446049250313E-016 -2.852319075374865E-015
 
 sum over diagonal and offdiagdiagonal of C(T)*S*C                              
                      for irrep                     3
  4.418687638008123E-014  5.825147222221494E-015
 reorthoganalization of MOs is carried out
 sum over diagonal and offdiagdiagonal of C(T)*S*C                              
                      for irrep                     3
  2.553512956637860E-015 -3.970863351673848E-015
 
 sum over diagonal and offdiagdiagonal of C(T)*S*C                              
                      for irrep                     4
 -5.551115123125783E-015  3.417405247674310E-015
 reorthoganalization of MOs is carried out
 sum over diagonal and offdiagdiagonal of C(T)*S*C                              
                      for irrep                     4
  6.661338147750939E-016  0.000000000000000E+000
 
 sum over diagonal and offdiagdiagonal of C(T)*S*C                              
                      for irrep                     1
  2.431388423929093E-014 -1.201024274576946E-013
 reorthoganalization of MOs is carried out
 sum over diagonal and offdiagdiagonal of C(T)*S*C                              
                      for irrep                     1
 -2.220446049250313E-015  3.733589003036445E-014
 
 sum over diagonal and offdiagdiagonal of C(T)*S*C                              
                      for irrep                     2
  1.176836406102666E-014  5.009447717752025E-015
 reorthoganalization of MOs is carried out
 sum over diagonal and offdiagdiagonal of C(T)*S*C                              
                      for irrep                     2
 -4.440892098500626E-016 -2.203098814490545E-016
 
 sum over diagonal and offdiagdiagonal of C(T)*S*C                              
                      for irrep                     3
  8.004708007547379E-014  5.523224022238593E-015
 reorthoganalization of MOs is carried out
 sum over diagonal and offdiagdiagonal of C(T)*S*C                              
                      for irrep                     3
 -7.549516567451064E-015  2.373806446548388E-015
 
 sum over diagonal and offdiagdiagonal of C(T)*S*C                              
                      for irrep                     4
  4.107825191113079E-015  3.785166624581393E-015
 reorthoganalization of MOs is carried out
 sum over diagonal and offdiagdiagonal of C(T)*S*C                              
                      for irrep                     4
  1.110223024625157E-016 -5.204170427930421E-017
  processed                  33741  ao basis integrals from 
                    57  buffers.
  processed                  40169  ao basis integrals from 
                    67  buffers.
  processed                  70314  ao basis integrals from 
                   118  buffers.
       5           -54.956441148796110              0.1879900784D+01
   current occupation vector 
     3  1  1  0
     3  0  1  0
  processed                  33741  ao basis integrals from 
                    57  buffers.
  processed                  40169  ao basis integrals from 
                    67  buffers.
  processed                  70314  ao basis integrals from 
                   118  buffers.
       6           -55.431007965071480              0.2625056453D+00
   current occupation vector 
     3  1  1  0
     3  0  1  0
  processed                  33741  ao basis integrals from 
                    57  buffers.
  processed                  40169  ao basis integrals from 
                    67  buffers.
  processed                  70314  ao basis integrals from 
                   118  buffers.
       7           -55.554881260719348              0.1905153405D+00
   current occupation vector 
     3  1  1  0
     3  0  1  0
  processed                  33741  ao basis integrals from 
                    57  buffers.
  processed                  40169  ao basis integrals from 
                    67  buffers.
  processed                  70314  ao basis integrals from 
                   118  buffers.
       8           -55.582369423648665              0.4656769368D-01
   current occupation vector 
     3  1  1  0
     3  0  1  0
  processed                  33741  ao basis integrals from 
                    57  buffers.
  processed                  40169  ao basis integrals from 
                    67  buffers.
  processed                  70314  ao basis integrals from 
                   118  buffers.
       9           -55.589292130122480              0.2237975365D-01
   current occupation vector 
     3  1  1  0
     3  0  1  0
 
 sum over diagonal and offdiagdiagonal of C(T)*S*C                              
                      for irrep                     1
  1.576516694967722E-014 -6.198104403782664E-014
 reorthoganalization of MOs is carried out
 sum over diagonal and offdiagdiagonal of C(T)*S*C                              
                      for irrep                     1
  8.659739592076221E-015  3.147197237637656E-015
 
 sum over diagonal and offdiagdiagonal of C(T)*S*C                              
                      for irrep                     2
  1.210143096841421E-014  1.747397799373163E-014
 reorthoganalization of MOs is carried out
 sum over diagonal and offdiagdiagonal of C(T)*S*C                              
                      for irrep                     2
 -6.661338147750939E-016  2.032973941100413E-015
 
 sum over diagonal and offdiagdiagonal of C(T)*S*C                              
                      for irrep                     3
  4.662936703425657E-014 -4.253779132320362E-014
 reorthoganalization of MOs is carried out
 sum over diagonal and offdiagdiagonal of C(T)*S*C                              
                      for irrep                     3
 -1.054711873393899E-014  1.944702265974790E-014
 
 sum over diagonal and offdiagdiagonal of C(T)*S*C                              
                      for irrep                     4
  8.881784197001252E-016  3.800779135865184E-015
 reorthoganalization of MOs is carried out
 sum over diagonal and offdiagdiagonal of C(T)*S*C                              
                      for irrep                     4
  8.881784197001252E-016 -6.158268339717665E-017
 
 sum over diagonal and offdiagdiagonal of C(T)*S*C                              
                      for irrep                     1
  5.018208071305708E-014 -2.206426427098970E-014
 reorthoganalization of MOs is carried out
 sum over diagonal and offdiagdiagonal of C(T)*S*C                              
                      for irrep                     1
 -2.553512956637860E-015  1.254645026676247E-014
 
 sum over diagonal and offdiagdiagonal of C(T)*S*C                              
                      for irrep                     2
  2.664535259100376E-014  1.508320378318384E-014
 reorthoganalization of MOs is carried out
 sum over diagonal and offdiagdiagonal of C(T)*S*C                              
                      for irrep                     2
  2.220446049250313E-016 -2.090450208769301E-015
 
 sum over diagonal and offdiagdiagonal of C(T)*S*C                              
                      for irrep                     3
  5.107025913275720E-014 -3.318081825466092E-014
 reorthoganalization of MOs is carried out
 sum over diagonal and offdiagdiagonal of C(T)*S*C                              
                      for irrep                     3
  1.065814103640150E-014 -1.248416788782875E-014
 
 sum over diagonal and offdiagdiagonal of C(T)*S*C                              
                      for irrep                     4
  3.885780586188048E-015 -6.635317295611287E-017
 reorthoganalization of MOs is carried out
 sum over diagonal and offdiagdiagonal of C(T)*S*C                              
                      for irrep                     4
 -2.220446049250313E-016  9.128982292327947E-016
  processed                  33741  ao basis integrals from 
                    57  buffers.
  processed                  40169  ao basis integrals from 
                    67  buffers.
  processed                  70314  ao basis integrals from 
                   118  buffers.
      10           -55.589336194829173              0.1906101632D-02
   current occupation vector 
     3  1  1  0
     3  0  1  0
  processed                  33741  ao basis integrals from 
                    57  buffers.
  processed                  40169  ao basis integrals from 
                    67  buffers.
  processed                  70314  ao basis integrals from 
                   118  buffers.
      11           -55.589343719244511              0.6209822155D-03
   current occupation vector 
     3  1  1  0
     3  0  1  0
  processed                  33741  ao basis integrals from 
                    57  buffers.
  processed                  40169  ao basis integrals from 
                    67  buffers.
  processed                  70314  ao basis integrals from 
                   118  buffers.
      12           -55.589345949118083              0.4255972213D-03
   current occupation vector 
     3  1  1  0
     3  0  1  0
  processed                  33741  ao basis integrals from 
                    57  buffers.
  processed                  40169  ao basis integrals from 
                    67  buffers.
  processed                  70314  ao basis integrals from 
                   118  buffers.
      13           -55.589346847775182              0.3169108942D-03
   current occupation vector 
     3  1  1  0
     3  0  1  0
  processed                  33741  ao basis integrals from 
                    57  buffers.
  processed                  40169  ao basis integrals from 
                    67  buffers.
  processed                  70314  ao basis integrals from 
                   118  buffers.
      14           -55.589346957382467              0.1109295293D-03
   current occupation vector 
     3  1  1  0
     3  0  1  0
 
 sum over diagonal and offdiagdiagonal of C(T)*S*C                              
                      for irrep                     1
  2.742250870824137E-014 -1.080581172810441E-014
 reorthoganalization of MOs is carried out
 sum over diagonal and offdiagdiagonal of C(T)*S*C                              
                      for irrep                     1
  4.440892098500626E-016 -5.035310396414944E-015
 
 sum over diagonal and offdiagdiagonal of C(T)*S*C                              
                      for irrep                     2
  1.576516694967722E-014  7.627565571342865E-015
 reorthoganalization of MOs is carried out
 sum over diagonal and offdiagdiagonal of C(T)*S*C                              
                      for irrep                     2
  1.776356839400250E-015  8.217439315810759E-016
 
 sum over diagonal and offdiagdiagonal of C(T)*S*C                              
                      for irrep                     3
  4.440892098500626E-014 -3.208064781705378E-014
 reorthoganalization of MOs is carried out
 sum over diagonal and offdiagdiagonal of C(T)*S*C                              
                      for irrep                     3
 -5.773159728050814E-015 -4.189153906576648E-015
 
 sum over diagonal and offdiagdiagonal of C(T)*S*C                              
                      for irrep                     4
 -2.664535259100376E-015 -2.853620117981848E-016
 reorthoganalization of MOs is carried out
 sum over diagonal and offdiagdiagonal of C(T)*S*C                              
                      for irrep                     4
  0.000000000000000E+000 -4.033232081646076E-016
 
 sum over diagonal and offdiagdiagonal of C(T)*S*C                              
                      for irrep                     1
  2.553512956637860E-014 -5.885932616004733E-015
 reorthoganalization of MOs is carried out
 sum over diagonal and offdiagdiagonal of C(T)*S*C                              
                      for irrep                     1
  9.992007221626409E-015 -1.069320465346736E-014
 
 sum over diagonal and offdiagdiagonal of C(T)*S*C                              
                      for irrep                     2
  1.976196983832779E-014  1.180435957315318E-014
 reorthoganalization of MOs is carried out
 sum over diagonal and offdiagdiagonal of C(T)*S*C                              
                      for irrep                     2
  1.332267629550188E-015  1.700571107543514E-015
 
 sum over diagonal and offdiagdiagonal of C(T)*S*C                              
                      for irrep                     3
  3.541611448554249E-014 -3.234342454234637E-014
 reorthoganalization of MOs is carried out
 sum over diagonal and offdiagdiagonal of C(T)*S*C                              
                      for irrep                     3
  1.332267629550188E-014  7.216700381815905E-015
 
 sum over diagonal and offdiagdiagonal of C(T)*S*C                              
                      for irrep                     4
 -1.554312234475219E-015  7.949370328663719E-016
 reorthoganalization of MOs is carried out
 sum over diagonal and offdiagdiagonal of C(T)*S*C                              
                      for irrep                     4
  3.330669073875470E-016 -3.300311413045875E-016
  processed                  33741  ao basis integrals from 
                    57  buffers.
  processed                  40169  ao basis integrals from 
                    67  buffers.
  processed                  70314  ao basis integrals from 
                   118  buffers.
      15           -55.589346966569565              0.2728557250D-04
   current occupation vector 
     3  1  1  0
     3  0  1  0
  processed                  33741  ao basis integrals from 
                    57  buffers.
  processed                  40169  ao basis integrals from 
                    67  buffers.
  processed                  70314  ao basis integrals from 
                   118  buffers.
      16           -55.589346968534613              0.1552271890D-04
   current occupation vector 
     3  1  1  0
     3  0  1  0
  processed                  33741  ao basis integrals from 
                    57  buffers.
  processed                  40169  ao basis integrals from 
                    67  buffers.
  processed                  70314  ao basis integrals from 
                   118  buffers.
      17           -55.589346968608240              0.3574240169D-05
   current occupation vector 
     3  1  1  0
     3  0  1  0
  processed                  33741  ao basis integrals from 
                    57  buffers.
  processed                  40169  ao basis integrals from 
                    67  buffers.
  processed                  70314  ao basis integrals from 
                   118  buffers.
      18           -55.589346968608375              0.1233048906D-06
   current occupation vector 
     3  1  1  0
     3  0  1  0
  processed                  33741  ao basis integrals from 
                    57  buffers.
  processed                  40169  ao basis integrals from 
                    67  buffers.
  processed                  70314  ao basis integrals from 
                   118  buffers.
      19           -55.589346968608474              0.1766314716D-06
   current occupation vector 
     3  1  1  0
     3  0  1  0
 
 sum over diagonal and offdiagdiagonal of C(T)*S*C                              
                      for irrep                     1
  5.584421813864537E-014 -5.384870221462531E-014
 reorthoganalization of MOs is carried out
 sum over diagonal and offdiagdiagonal of C(T)*S*C                              
                      for irrep                     1
 -2.275957200481571E-014  3.339231997284037E-014
 
 sum over diagonal and offdiagdiagonal of C(T)*S*C                              
                      for irrep                     2
  2.364775042451583E-014  8.820933350070503E-015
 reorthoganalization of MOs is carried out
 sum over diagonal and offdiagdiagonal of C(T)*S*C                              
                      for irrep                     2
  1.110223024625157E-016 -1.513939256077290E-015
 
 sum over diagonal and offdiagdiagonal of C(T)*S*C                              
                      for irrep                     3
  7.271960811294775E-014 -2.813102127543349E-014
 reorthoganalization of MOs is carried out
 sum over diagonal and offdiagdiagonal of C(T)*S*C                              
                      for irrep                     3
 -1.998401444325282E-015 -9.427558018103299E-015
 
 sum over diagonal and offdiagdiagonal of C(T)*S*C                              
                      for irrep                     4
 -5.551115123125783E-016 -6.236330896136622E-016
 reorthoganalization of MOs is carried out
 sum over diagonal and offdiagdiagonal of C(T)*S*C                              
                      for irrep                     4
 -2.220446049250313E-016 -1.387778780781446E-016
 
 sum over diagonal and offdiagdiagonal of C(T)*S*C                              
                      for irrep                     1
  2.431388423929093E-014 -2.266611759581317E-014
 reorthoganalization of MOs is carried out
 sum over diagonal and offdiagdiagonal of C(T)*S*C                              
                      for irrep                     1
  4.440892098500626E-016  8.963407044655755E-015
 
 sum over diagonal and offdiagdiagonal of C(T)*S*C                              
                      for irrep                     2
  2.553512956637860E-014  9.215501625692291E-015
 reorthoganalization of MOs is carried out
 sum over diagonal and offdiagdiagonal of C(T)*S*C                              
                      for irrep                     2
 -2.220446049250313E-016 -2.199520947321343E-015
 
 sum over diagonal and offdiagdiagonal of C(T)*S*C                              
                      for irrep                     3
  5.850875339774575E-014 -3.288399419302049E-014
 reorthoganalization of MOs is carried out
 sum over diagonal and offdiagdiagonal of C(T)*S*C                              
                      for irrep                     3
 -7.882583474838611E-015  4.904100536036113E-015
 
 sum over diagonal and offdiagdiagonal of C(T)*S*C                              
                      for irrep                     4
 -1.332267629550188E-015  2.744766219864303E-015
 reorthoganalization of MOs is carried out
 sum over diagonal and offdiagdiagonal of C(T)*S*C                              
                      for irrep                     4
 -8.881784197001252E-016 -2.675810961694225E-016
  processed                  33741  ao basis integrals from 
                    57  buffers.
  processed                  40169  ao basis integrals from 
                    67  buffers.
  processed                  70314  ao basis integrals from 
                   118  buffers.
      20           -55.589346968608339              0.2115154810D-07
   current occupation vector 
     3  1  1  0
     3  0  1  0
  processed                  33741  ao basis integrals from 
                    57  buffers.
  processed                  40169  ao basis integrals from 
                    67  buffers.
  processed                  70314  ao basis integrals from 
                   118  buffers.
      21           -55.589346968608623              0.8804033821D-08
   current occupation vector 
     3  1  1  0
     3  0  1  0
  processed                  33741  ao basis integrals from 
                    57  buffers.
  processed                  40169  ao basis integrals from 
                    67  buffers.
  processed                  70314  ao basis integrals from 
                   118  buffers.
      22           -55.589346968608453              0.2908324331D-08
   current occupation vector 
     3  1  1  0
     3  0  1  0
  processed                  33741  ao basis integrals from 
                    57  buffers.
  processed                  40169  ao basis integrals from 
                    67  buffers.
  processed                  70314  ao basis integrals from 
                   118  buffers.
      23           -55.589346968608425              0.3740125432D-09
   current occupation vector 
     3  1  1  0
     3  0  1  0
  processed                  33741  ao basis integrals from 
                    57  buffers.
  processed                  40169  ao basis integrals from 
                    67  buffers.
  processed                  70314  ao basis integrals from 
                   118  buffers.
      24           -55.589346968608503              0.2830034956D-09
   current occupation vector 
     3  1  1  0
     3  0  1  0
 
 sum over diagonal and offdiagdiagonal of C(T)*S*C                              
                      for irrep                     1
  1.043609643147647E-014 -4.093310297878692E-014
 reorthoganalization of MOs is carried out
 sum over diagonal and offdiagdiagonal of C(T)*S*C                              
                      for irrep                     1
  6.106226635438361E-015 -9.035334594377308E-016
 
 sum over diagonal and offdiagdiagonal of C(T)*S*C                              
                      for irrep                     2
  1.232347557333924E-014  1.303692126041617E-014
 reorthoganalization of MOs is carried out
 sum over diagonal and offdiagdiagonal of C(T)*S*C                              
                      for irrep                     2
  1.221245327087672E-015 -2.077060311939105E-015
 
 sum over diagonal and offdiagdiagonal of C(T)*S*C                              
                      for irrep                     3
  3.863576125695545E-014 -4.590754588539719E-014
 reorthoganalization of MOs is carried out
 sum over diagonal and offdiagdiagonal of C(T)*S*C                              
                      for irrep                     3
  5.773159728050814E-015  2.392410000575523E-014
 
 sum over diagonal and offdiagdiagonal of C(T)*S*C                              
                      for irrep                     4
  3.996802888650564E-015  2.579533808777512E-015
 reorthoganalization of MOs is carried out
 sum over diagonal and offdiagdiagonal of C(T)*S*C                              
                      for irrep                     4
  1.332267629550188E-015 -8.638922910364499E-016
 
 sum over diagonal and offdiagdiagonal of C(T)*S*C                              
                      for irrep                     1
  2.642330798607873E-014 -5.790564950818500E-014
 reorthoganalization of MOs is carried out
 sum over diagonal and offdiagdiagonal of C(T)*S*C                              
                      for irrep                     1
  0.000000000000000E+000 -8.372794846276532E-015
 
 sum over diagonal and offdiagdiagonal of C(T)*S*C                              
                      for irrep                     2
  2.020605904817785E-014  7.738926686984282E-015
 reorthoganalization of MOs is carried out
 sum over diagonal and offdiagdiagonal of C(T)*S*C                              
                      for irrep                     2
  1.110223024625157E-015 -6.752411130239722E-016
 
 sum over diagonal and offdiagdiagonal of C(T)*S*C                              
                      for irrep                     3
  4.340972026284362E-014 -3.326397317315877E-014
 reorthoganalization of MOs is carried out
 sum over diagonal and offdiagdiagonal of C(T)*S*C                              
                      for irrep                     3
 -2.997602166487923E-015  2.025265941280399E-015
 
 sum over diagonal and offdiagdiagonal of C(T)*S*C                              
                      for irrep                     4
 -1.443289932012704E-015  4.423544863740858E-017
 reorthoganalization of MOs is carried out
 sum over diagonal and offdiagdiagonal of C(T)*S*C                              
                      for irrep                     4
 -2.220446049250313E-016  6.279698983036042E-016
  processed                  33741  ao basis integrals from 
                    57  buffers.
  processed                  40169  ao basis integrals from 
                    67  buffers.
  processed                  70314  ao basis integrals from 
                   118  buffers.
      25           -55.589346968608346              0.1180227860D-09
   current occupation vector 
     3  1  1  0
     3  0  1  0
  processed                  33741  ao basis integrals from 
                    57  buffers.
  processed                  40169  ao basis integrals from 
                    67  buffers.
  processed                  70314  ao basis integrals from 
                   118  buffers.
      26           -55.589346968608538              0.2655162201D-10
   current occupation vector 
     3  1  1  0
     3  0  1  0
  processed                  33741  ao basis integrals from 
                    57  buffers.
  processed                  40169  ao basis integrals from 
                    67  buffers.
  processed                  70314  ao basis integrals from 
                   118  buffers.
      27           -55.589346968608325              0.1485686574D-10
   current occupation vector 
     3  1  1  0
     3  0  1  0
  processed                  33741  ao basis integrals from 
                    57  buffers.
  processed                  40169  ao basis integrals from 
                    67  buffers.
  processed                  70314  ao basis integrals from 
                   118  buffers.
      28           -55.589346968608382              0.1016575712D-11
   current occupation vector 
     3  1  1  0
     3  0  1  0

  SCF has converged.

 save density matrix on hard disk
 total alpha spin electron number:   5.00000000000001     
 total  beta spin electron number:   4.00000000000001     
  processed                  33741  ao basis integrals from 
                    57  buffers.
  processed                  40169  ao basis integrals from 
                    67  buffers.
  processed                  70314  ao basis integrals from 
                   118  buffers.
     E(SCF)=       -55.589346968608474              0.5175859741D-12


  ORBITAL EIGENVECTORS

  SYMMETRY BLOCK 1 (ALPHA)

                          MO #  1       MO #  2       MO #  3       MO #  4

    BASIS/ORB E          -15.58904      -1.17029      -0.50513       0.11131
                        ----------    ----------    ----------    ----------
    1; N #1                0.34649       0.07374       0.02736       0.02147
    2; N #1               -0.42906      -0.12614      -0.04843      -0.03182
    3; N #1               -0.32298      -0.14033      -0.05191      -0.05748
    4; N #1               -0.03656       0.19713       0.07718       0.15288
    5; N #1                0.01342       0.49805       0.22764      -0.12584
    6; N #1               -0.00337       0.23963       0.29249       1.11297
    7; N #1               -0.00225       0.03712      -0.21071       0.04573
    8; N #1               -0.00099      -0.06147       0.29391      -0.07676
    9; N #1               -0.00133      -0.05279       0.28692      -0.05999
   10; N #1                0.00045      -0.01197       0.16738      -0.19733
   11; N #1                0.00000      -0.00088      -0.00847       0.00090
   12; N #1               -0.00030       0.00287       0.00527      -0.00154
   13; N #1                0.00009      -0.00054      -0.00186       0.00005
   14; N #1               -0.00024      -0.00013       0.00351       0.00078
   15; H #2               -0.00003       0.05478      -0.04522       0.00708
   16; H #2               -0.00144       0.09412      -0.09056      -0.08386
   17; H #2               -0.00071       0.02598      -0.13070       0.21705
   18; H #2                0.00059       0.00227      -0.00682      -1.04115
   19; H #2               -0.00094       0.00298      -0.02116       0.00258
   20; H #2               -0.00072       0.00131       0.00811      -0.00238
   21; H #2               -0.00002       0.01184      -0.00636       0.01083
   22; H #2                0.00003       0.00833       0.00012       0.00762


                          MO #  5       MO #  6       MO #  7       MO #  8

    BASIS/ORB E            0.36361       0.45896       0.70159       0.87474
                        ----------    ----------    ----------    ----------
    1; N #1                0.01675       0.01010       0.04523       0.00544
    2; N #1               -0.02826      -0.02214      -0.10320      -0.00721
    3; N #1               -0.03739      -0.00814      -0.03082      -0.01800
    4; N #1                0.08510      -0.06122      -0.21598       0.07927
    5; N #1                0.03573       0.36286       1.92418      -0.10162
    6; N #1                1.98067       2.30418      -5.22258      -2.01666
    7; N #1               -0.08849       0.16186       0.02733      -0.04485
    8; N #1               -0.00078      -0.05704      -0.13045      -0.00451
    9; N #1                0.37948      -1.26976       0.77064       0.94469
   10; N #1               -1.96829      -0.07623       0.86369       0.74385
   11; N #1                0.00380       0.00909      -0.00877       0.00130
   12; N #1               -0.00307      -0.03169       0.07365       0.02460
   13; N #1               -0.00259      -0.00042       0.00106       0.00893
   14; N #1                0.00894       0.01366      -0.01220       0.00398
   15; H #2               -0.04349      -0.05556      -0.03343      -0.02201
   16; H #2                0.09579      -0.01919       0.24973      -0.02126
   17; H #2               -1.61264      -2.34635       1.23763       1.43901
   18; H #2                0.09127       0.64747       0.76255      -0.09237
   19; H #2               -0.08382      -0.18973       0.39942       0.74321
   20; H #2               -0.03136      -0.15334       0.29889      -0.47325
   21; H #2                0.01331       0.01402      -0.02946      -0.07069
   22; H #2               -0.00162       0.01230      -0.02658       0.06454


                          MO #  9       MO # 10       MO # 11       MO # 12

    BASIS/ORB E            1.23634       1.48317       1.71413       2.07624
                        ----------    ----------    ----------    ----------
    1; N #1                0.01240       0.01863       0.00333       0.00539
    2; N #1               -0.01045      -0.05884      -0.00432      -0.01240
    3; N #1               -0.05726       0.02986      -0.01309      -0.00438
    4; N #1                0.26953      -0.51405       0.00241      -0.04884
    5; N #1               -0.94109       2.80874       0.68300       0.30971
    6; N #1               -2.55783       0.83997       0.95950       1.32668
    7; N #1                0.08770      -0.07960       0.21540      -0.04907
    8; N #1               -0.15682       0.42630      -1.19642       0.31698
    9; N #1                0.73291      -2.34496       1.43388      -1.49197
   10; N #1                0.73721       0.53504      -0.86194      -0.29780
   11; N #1               -0.03258      -0.05103       0.03096       0.40176
   12; N #1                0.19058       0.11451       0.12305       0.13937
   13; N #1                0.00168      -0.00070       0.00237      -0.01468
   14; N #1               -0.00510       0.00319      -0.00748      -0.00329
   15; H #2               -0.05883       0.01871      -0.00938      -0.00110
   16; H #2               -1.13575      -0.45121       0.23572      -0.28186
   17; H #2                3.37609      -1.29619      -0.75641      -0.79819
   18; H #2               -0.59666       0.16810      -0.11145       0.02523
   19; H #2                0.50681      -1.10850      -0.57452      -0.77085
   20; H #2                0.51909      -0.80846      -0.42680       0.53943
   21; H #2               -0.01060       0.06920       0.09723       0.06590
   22; H #2               -0.04097       0.05979       0.06586      -0.08463


                          MO # 13       MO # 14       MO # 15       MO # 16

    BASIS/ORB E            2.22599       3.54745       4.18413       4.34814
                        ----------    ----------    ----------    ----------
    1; N #1                0.05072       0.11406       0.02355       0.02537
    2; N #1               -0.08390      -0.05476      -0.03116      -0.05593
    3; N #1               -0.13372      -0.74346      -0.09874      -0.04128
    4; N #1                0.13560       4.43099       0.55568       0.18773
    5; N #1                2.08015      -7.26577      -0.94464      -0.44112
    6; N #1                4.60003       0.38649       0.09828      -0.67755
    7; N #1                0.05242      -0.05934      -0.02834       0.28930
    8; N #1               -0.03020       0.02921      -0.18699       0.16030
    9; N #1               -2.81676       2.14958       0.43035       0.15802
   10; N #1               -0.48137      -0.22180      -0.25204       0.13817
   11; N #1                0.06970      -0.03614      -0.08025       0.03683
   12; N #1               -0.78426       0.44840      -0.13257      -0.17403
   13; N #1               -0.00336      -0.01037       0.03370      -0.03611
   14; N #1                0.03941      -0.02173       0.10386       0.20414
   15; H #2               -0.00904       0.07020       0.00796      -0.26776
   16; H #2               -1.64227       1.27148       0.05555       0.27423
   17; H #2               -2.34913       1.26473       0.13438       0.21963
   18; H #2               -0.15709      -0.38292      -0.02310       0.13444
   19; H #2               -1.49216       1.00808       0.05061       0.70936
   20; H #2               -1.06942       0.62062       0.58134       0.28954
   21; H #2                0.05090       0.09958       0.27838      -0.86607
   22; H #2                0.04491       0.20197      -0.93327      -0.22901


                          MO # 17       MO # 18       MO # 19       MO # 20

    BASIS/ORB E            5.66557       5.79964       5.92946       6.37435
                        ----------    ----------    ----------    ----------
    1; N #1                0.00714       0.01526       0.00199       0.01341
    2; N #1               -0.01296      -0.02813       0.00113      -0.04885
    3; N #1               -0.02049      -0.06208      -0.03400       0.02694
    4; N #1                0.08069       0.84674       0.64910      -0.19309
    5; N #1               -0.02139      -2.17576      -1.81562       0.41161
    6; N #1               -0.96164      -1.48282      -0.28922      -1.45896
    7; N #1                0.42420       0.74255      -0.47229      -1.11660
    8; N #1                0.47117       1.12398      -0.49610      -1.87993
    9; N #1                0.01498       0.66166       1.60614       1.36617
   10; N #1                0.44863       0.25878      -0.29460       0.02767
   11; N #1               -0.25740       0.01313      -0.18442      -0.01680
   12; N #1                0.00753       0.56901       0.10003       0.16597
   13; N #1                0.33595      -0.03361       0.17533       0.03074
   14; N #1               -0.06212      -0.49580       0.12071      -0.37072
   15; H #2                0.42195      -0.56797      -1.09723       0.20499
   16; H #2               -0.61121       1.60902       2.29536      -0.55394
   17; H #2                0.95997       0.52758      -0.64040       1.15436
   18; H #2               -0.09399       0.14366       0.21496      -0.09316
   19; H #2                0.35594       0.64958       0.50160       0.43693
   20; H #2               -0.12280       0.65240       0.05364       0.22792
   21; H #2               -0.18022       0.00783       0.18041      -0.61974
   22; H #2                0.00192      -0.14549       0.14528      -0.32842


                          MO # 21       MO # 22

    BASIS\ORB E           15.13819      78.42225
                        ----------    ----------
    1; N #1                0.19112       1.78152
    2; N #1               -1.74158       3.11885
    3; N #1                3.32618      -2.36385
    4; N #1               -3.45437       1.54813
    5; N #1                3.39631      -1.43848
    6; N #1               -0.37618       0.18455
    7; N #1                0.01019      -0.00270
    8; N #1                0.04765      -0.01585
    9; N #1               -0.75483       0.30911
   10; N #1                0.11119      -0.05115
   11; N #1                0.01747      -0.00676
   12; N #1               -0.12172       0.04851
   13; N #1               -0.00640       0.00200
   14; N #1                0.03561      -0.01120
   15; H #2                0.02986      -0.01017
   16; H #2               -0.40387       0.16432
   17; H #2               -0.46281       0.18677
   18; H #2                0.16829      -0.07451
   19; H #2               -0.39797       0.15951
   20; H #2               -0.27384       0.10930
   21; H #2                0.07242      -0.02244
   22; H #2                0.06305      -0.02001


  SYMMETRY BLOCK 2 (ALPHA)

                          MO # 23       MO # 24       MO # 25       MO # 26

    BASIS/ORB E           -0.51409       0.36458       1.02578       1.61156
                        ----------    ----------    ----------    ----------
   23; N #1                0.24882       0.16438       0.06038       0.22586
   24; N #1               -0.35048      -0.03500      -0.06646      -1.22318
   25; N #1               -0.39582      -0.87719      -0.45172       1.99405
   26; N #1               -0.21076       1.41215      -0.31048      -0.89408
   27; N #1                0.02833       0.00342      -0.19760       0.30568
   28; N #1                0.00438       0.00498      -0.00635      -0.00234
   29; H #2               -0.01799      -0.01612       0.85022       0.05235
   30; H #2               -0.00724       0.00855      -0.10957      -0.01701


                          MO # 27       MO # 28       MO # 29       MO # 30

    BASIS/ORB E            1.83319       4.12505       5.50630       5.81609
                        ----------    ----------    ----------    ----------
   23; N #1                0.06978       0.14122       0.29552       1.44249
[...]
     Amplitude   Case     Change       Change       i    j    a    b
    -------------------------------------------------------------------
        T1        AA    0.0000000000 0.0000000000    3         6
        T1        BB    0.0000000000 0.0000000000    3         7
        T2        AA    0.0000000000 0.0000000000    4    3   25    6
        T2        BB    0.0000000000 0.0000000000    3    2   25   24
        T2        AB    0.0000000000 0.0000000000    4    3    6   24
    -------------------------------------------------------------------
   The AA contribution to the correlation energy is:   -0.0279818 a.u.
   The BB contribution to the correlation energy is:   -0.0119254 a.u.
   The AB contribution to the correlation energy is:   -0.1733908 a.u.
   The total correlation energy is -0.213298055690 a.u.
  Current DIIS expansion coefficients : 
 [   1]-0.0848888578 [   2]-0.4285098273 [   3] 1.4732784520 [   4]-0.0058375088
 [   5] 0.0459577418
  Convergence information after    23 iterations: 
  Largest element of residual vector : -0.87608966E-11.
  Largest element of DIIS residual   :  0.42904064E-11.
  W(mnij) AA contribution =  0.0036580605 a.u.
  W(mnij) BB contribution =  0.0014085964 a.u.
  W(mnij) AB contribution =  0.0345786896 a.u.
  W(abef) AA contribution =  0.0042993380 a.u.
  W(abef) BB contribution =  0.0017635780 a.u.
  W(abef) AB contribution =  0.0433776156 a.u.
  W(mbej) AA contribution =  -0.0081926511 a.u.
  W(mbej) BB contribution =  -0.0029419742 a.u.
  W(mbej) AB contribution = -0.1112905803 a.u.
   After  24 iterations, amplitude changes are:
    -------------------------------------------------------------------
                 Spin      RMS          Max.      Max. change for
     Amplitude   Case     Change       Change       i    j    a    b
    -------------------------------------------------------------------
        T1        AA    0.0000000000 0.0000000000    5        34
        T1        BB    0.0000000000 0.0000000000    3         7
        T2        AA    0.0000000000 0.0000000000    4    3   25    6
        T2        BB    0.0000000000 0.0000000000    4    3   33    7
        T2        AB    0.0000000000 0.0000000000    4    3    6   24
    -------------------------------------------------------------------
   The AA contribution to the correlation energy is:   -0.0279818 a.u.
   The BB contribution to the correlation energy is:   -0.0119254 a.u.
   The AB contribution to the correlation energy is:   -0.1733908 a.u.
   The total correlation energy is -0.213298055690 a.u.
  Current DIIS expansion coefficients : 
 [   1] 0.0246098220 [   2]-0.0288145157 [   3]-0.2180708721 [   4] 1.2249586571
 [   5]-0.0026830913
  Convergence information after    24 iterations: 
  Largest element of residual vector : -0.23406695E-11.
  Largest element of DIIS residual   :  0.14669238E-11.
  W(mnij) AA contribution =  0.0036580605 a.u.
  W(mnij) BB contribution =  0.0014085964 a.u.
  W(mnij) AB contribution =  0.0345786896 a.u.
  W(abef) AA contribution =  0.0042993380 a.u.
  W(abef) BB contribution =  0.0017635780 a.u.
  W(abef) AB contribution =  0.0433776156 a.u.
  W(mbej) AA contribution =  -0.0081926511 a.u.
  W(mbej) BB contribution =  -0.0029419742 a.u.
  W(mbej) AB contribution = -0.1112905803 a.u.
   After  25 iterations, amplitude changes are:
    -------------------------------------------------------------------
                 Spin      RMS          Max.      Max. change for
     Amplitude   Case     Change       Change       i    j    a    b
    -------------------------------------------------------------------
        T1        AA    0.0000000000 0.0000000000    5        33
        T1        BB    0.0000000000 0.0000000000    3         7
        T2        AA    0.0000000000 0.0000000000    4    3   25    6
        T2        BB    0.0000000000 0.0000000000    4    3   45   24
        T2        AB    0.0000000000 0.0000000000    4    3    6   24
    -------------------------------------------------------------------
   The AA contribution to the correlation energy is:   -0.0279818 a.u.
   The BB contribution to the correlation energy is:   -0.0119254 a.u.
   The AB contribution to the correlation energy is:   -0.1733908 a.u.
   The total correlation energy is -0.213298055690 a.u.
  Current DIIS expansion coefficients : 
 [   1]-0.0015193322 [   2] 0.0272422500 [   3]-0.0719361536 [   4]-0.2971873532
 [   5] 1.3434005891
  Convergence information after    25 iterations: 
  Largest element of residual vector : -0.85605915E-12.
  Largest element of DIIS residual   : -0.37393498E-12.
  Amplitude equations converged in    25iterations.
   The AA contribution to the correlation energy is:   -0.0279818 a.u.
   The BB contribution to the correlation energy is:   -0.0119254 a.u.
   The AB contribution to the correlation energy is:   -0.1733908 a.u.
   The total correlation energy is -0.213298055690 a.u.
   The CC iterations have converged.

            ----------------------------------------------
                     Projected spin multiplicities: 
            ----------------------------------------------
             <0|S^2|0>                  =    0.7587811016.
             <0|S^2 (T2+T1**2) |0>      =   -0.0060361955.
             <0|S^2 T1|0>               =   -0.0022128087.
             Projected <0|S^2 exp(T)|0> =    0.7505320974.
             Approximate spin mult.     =    2.0005320266.
            ----------------------------------------------
   Largest T1 amplitudes for spin case AA:
   i       a                 i       a                 i       a    
-----------------------------------------------------------------------------
[  4      25    ]-0.01449 [  3       7    ]-0.00674 [  5      38    ] 0.00668
[  2       7    ]-0.00627 [  3      13    ]-0.00622 [  4      26    ]-0.00413
[  3       8    ] 0.00405 [  3       6    ] 0.00379 [  2       6    ]-0.00372
[  5      32    ]-0.00354 [  4      27    ] 0.00345 [  5      33    ]-0.00293
[  3      10    ]-0.00259 [  5      41    ] 0.00225 [  4      31    ] 0.00225
-----------------------------------------------------------------------------
   Norm of T1AA vector (       77 symmetry allowed elements):  0.0233433905.
-----------------------------------------------------------------------------
   Largest T2 amplitudes for spin case AA:
   i   j   a   b             i   j   a   b             i   j   a   b
-----------------------------------------------------------------------------
[  5   4  34  25]-0.01717 [  4   3  25   8] 0.01620 [  5   3  33  10]-0.01510
[  4   3  25   7]-0.01311 [  5   4  45   8]-0.01285 [  5   3  34   7]-0.01276
[  5   3  35  10]-0.01205 [  5   4  32  25]-0.01187 [  5   4  34  27]-0.01089
[  4   3  26  10]-0.01075 [  5   3  34  10]-0.01062 [  4   2  25   9]-0.01021
[  5   4  45  11]-0.01014 [  4   3  25  13] 0.00990 [  4   3  26   8] 0.00983
-----------------------------------------------------------------------------
   Norm of T2AA vector (     2375 symmetry allowed elements):  0.0843885339.
-----------------------------------------------------------------------------
   Largest T1 amplitudes for spin case BB:
   i       a                 i       a                 i       a    
-----------------------------------------------------------------------------
[  2       7    ] 0.00949 [  4      38    ] 0.00855 [  3      12    ]-0.00717
[  4      34    ] 0.00679 [  2      11    ] 0.00531 [  3       9    ]-0.00497
[  3       5    ] 0.00489 [  3       7    ] 0.00477 [  2      10    ] 0.00476
[  2      12    ] 0.00469 [  3      11    ] 0.00436 [  2      15    ] 0.00314
[  2       5    ] 0.00287 [  4      41    ] 0.00282 [  4      35    ] 0.00265
-----------------------------------------------------------------------------
   Norm of T1BB vector (       70 symmetry allowed elements):  0.0226544130.
-----------------------------------------------------------------------------
   Largest T2 amplitudes for spin case BB:
   i   j   a   b             i   j   a   b             i   j   a   b
-----------------------------------------------------------------------------
[  4   3  33   9]-0.01511 [  4   3  34   6]-0.01360 [  4   3  35   9]-0.01167
[  4   3  34   9]-0.01053 [  3   2  26  24]-0.00983 [  4   3  32   6]-0.00925
[  4   2  45  24]-0.00909 [  4   3  34   7] 0.00758 [  4   2  34   8]-0.00675
[  4   3  34  11]-0.00664 [  4   3  33  13]-0.00660 [  4   3  35  13]-0.00649
[  4   3  45  26]-0.00635 [  3   2  26  25]-0.00630 [  3   2   8   7]-0.00626
-----------------------------------------------------------------------------
   Norm of T2BB vector (     1686 symmetry allowed elements):  0.0544610252.
-----------------------------------------------------------------------------
   Largest T2 amplitudes for spin case AB:
       _       _                 _       _                 _       _
   i   j   a   b             i   j   a   b             i   j   a   b
-----------------------------------------------------------------------------
[  5   4  34  34]-0.03376 [  3   3   8   7]-0.02424 [  4   4  25  34]-0.02304
[  3   4   8  34] 0.02188 [  4   2   8  24]-0.02109 [  3   3   7   6]-0.02093
[  4   3  25   6]-0.02076 [  5   3  34   7] 0.02016 [  5   4  32  34]-0.01935
[  5   2  45  24]-0.01915 [  5   4   8   7]-0.01892 [  5   4  34  32]-0.01868
[  3   3  33  33]-0.01865 [  3   3   8   6] 0.01864 [  3   3  10   9]-0.01860
-----------------------------------------------------------------------------
   Norm of T2AB vector (    10858 symmetry allowed elements):  0.2274055297.
-----------------------------------------------------------------------------
       Summary of iterative solution of CC equations 
      -----------------------------------------------------------
                       Correlation           Total
       Iteration         Energy              Energy
      -----------------------------------------------------------
            0        -0.195530391774     -55.784877360382  DIIS 
            1        -0.207788570020     -55.797135538629  DIIS 
            2        -0.211623024924     -55.800969993532  DIIS 
            3        -0.212831495922     -55.802178464530  DIIS 
            4        -0.213233908350     -55.802580876958  DIIS 
            5        -0.213288658932     -55.802635627541  DIIS 
            6        -0.213294261198     -55.802641229807  DIIS 
            7        -0.213297277706     -55.802644246315  DIIS 
            8        -0.213297680123     -55.802644648731  DIIS 
            9        -0.213298145895     -55.802645114503  DIIS 
           10        -0.213298132858     -55.802645101466  DIIS 
           11        -0.213298117635     -55.802645086243  DIIS 
           12        -0.213298077468     -55.802645046076  DIIS 
           13        -0.213298064105     -55.802645032714  DIIS 
           14        -0.213298059222     -55.802645027831  DIIS 
           15        -0.213298056925     -55.802645025534  DIIS 
           16        -0.213298056206     -55.802645024814  DIIS 
           17        -0.213298055773     -55.802645024381  DIIS 
           18        -0.213298055720     -55.802645024328  DIIS 
           19        -0.213298055698     -55.802645024306  DIIS 
           20        -0.213298055695     -55.802645024303  DIIS 
           21        -0.213298055692     -55.802645024300  DIIS 
           22        -0.213298055691     -55.802645024299  DIIS 
           23        -0.213298055690     -55.802645024299  DIIS 
           24        -0.213298055690     -55.802645024298  DIIS 
           25        -0.213298055690     -55.802645024298  DIIS 
      -----------------------------------------------------------
      A miracle has come to pass. The CC iterations have converged.
 @DIMT3-I, Dimensions of T3 amplitudes : 
               # abc          # ijk       Symmetry    Spin 
                     3328              1     1          1
                     2808              3     2          1
                     3392              3     3          1
                     2813              3     4          1
                    10967             12     1          2
                     8994             10     2          2
                    10889             12     3          2
                     8882              6     4          2
                    11152             12     1          3
                     9313              3     2          3
                    11056             12     3          3
                     9157              3     4          3
                     3513              1     1          4
                     3084              0     2          4
                     3559              3     3          4
                     3088              0     4          4
 @DIMT3-I, Dimensions of T3 amplitudes : 
               # abc          # ijk       Symmetry    Spin 
                     3328              1     1          1
                     2808              3     2          1
                     3392              3     3          1
                     2813              3     4          1
                    10967             12     1          2
                     8994             10     2          2
                    10889             12     3          2
                     8882              6     4          2
                    11152             12     1          3
                     9313              3     2          3
                    11056             12     3          3
                     9157              3     4          3
                     3513              1     1          4
                     3084              0     2          4
                     3559              3     3          4
                     3088              0     4          4
 @TRPS-I, Welcome to TRPS. Watch your RUs ! 
 @TRPS-I, Method is CCSD(T) 
 @TRPS-I, Calculation type is energy 
 @TRPS-I, Reference function information : 
          Reference function is Hartree-Fock 
          Reference function is UHF Hartree-Fock 
 @TRPS-I, INT1 is true 
 @TRPS-I, INT2 is false 
 @TRPS-I, Lengths of ijka integrals. #1        581
                                     #2        384
                                     #3       1142
                                     #4       1326
                                    Max       1326
 @INITRP-I, Initializing W intermediate lists. 
 @TSPABCI-I, AbIc/AbcI record transposition. 
 @TSPABCI-I, (O,v) ---> (v,O) transposition. 
 @TSPABCI-I, In-core algorithm is being used. 
 @TSPABCI-I, In-core algorithm is being used. 
 @TSPABCI-I, In-core algorithm is being used. 
 @TSPABCI-I, In-core algorithm is being used. 
 @TRPS-I, Available memory in integer words     99959040
          Number of pre-allocated words for TRPS14         4100
          Number of free words for TRPS14     99954940
 @TRPS14-I, Spin case AAA 
 @TRPS14-I, Number of free integer words   99954940
            Number of free double words    99954940
            Ratio                                 1
 @TRPS14-I, E4TAAA      -0.000177176644
 @TRPS14-I, E5ST A    0.000004392719589
 @TRPS-I, Available memory in integer words     99959040
          Number of pre-allocated words for TRPS14         4096
          Number of free words for TRPS14     99954944
 @TRPS14-I, Spin case BBB 
 @TRPS14-I, Number of free integer words   99954944
            Number of free double words    99954944
            Ratio                                 1
 @TRPS14-I, E4TBBB      -0.000030107024
 @TRPS14-I, E5ST B    0.000001893031570
 @SETOOOV-I, Some OOOV lists are being transposed. 
 @TRPS-I, Available memory in integer words     99959040
          Number of pre-allocated words for TRPS2        14406
          Number of free words for TRPS2     99944634
 @TRPS2-I, Spin case AAB 
 @TRPS2-I, Number of free integer words   99944634
           Number of free double  words   99944634
           Ratio                                 1
 @TRPS2-I, E4TBAA      -0.003172585112
 @TRPS2-I, E5ST A    0.000042795701446
 @TRPS2-I, E5ST B    0.000039300458187
 @SETOOOV-I, Some OOOV lists are being transposed. 
 @TSPABCI2-I, (Alpha,Beta) ---> (Beta,Alpha). 
 @TSPABCI2-I, In-core algorithm is being used. 
 @TSPABCI2-I, In-core algorithm is being used. 
 @TSPABCI2-I, In-core algorithm is being used. 
 @TSPABCI2-I, In-core algorithm is being used. 
 @TSPABCI2-I, In-core algorithm is being used. 
 @TSPABCI2-I, In-core algorithm is being used. 
 @TSPABCI2-I, In-core algorithm is being used. 
 @TSPABCI2-I, In-core algorithm is being used. 
 @AT2IAB-I, Some AbIj lists are being altered. 
 @TRPS-I, Available memory in integer words     99959040
          Number of pre-allocated words for TRPS3        30384
          Number of free words for TRPS3     99928656
 @TRPS3-I, Spin case BBA 
 @TRPS3-I, Number of free integer words   99928656
           Number of free double  words   99928656
           Ratio                                 1
 @TRPS3-I, E4TBBA      -0.001918868050
 @TRPS3-I, E5ST A    0.000051289146668
 @TRPS3-I, E5ST B    0.000080859783823
 @TSPABCI2-I, (Beta,Alpha) ---> (Alpha,Beta). 
 @TSPABCI2-I, In-core algorithm is being used. 
 @TSPABCI2-I, In-core algorithm is being used. 
 @TSPABCI2-I, In-core algorithm is being used. 
 @TSPABCI2-I, In-core algorithm is being used. 
 @TSPABCI2-I, In-core algorithm is being used. 
 @TSPABCI2-I, In-core algorithm is being used. 
 @TSPABCI2-I, In-core algorithm is being used. 
 @TSPABCI2-I, In-core algorithm is being used. 
 @AT2IAB-I, Some AbIj lists are being altered. 
 @TSPABCI-I, AbIc/AbcI record transposition. 
 @TSPABCI-I, (v,O) ---> (O,v) transposition. 
 @TSPABCI-I, In-core algorithm is being used. 
 @TSPABCI-I, In-core algorithm is being used. 
 @TSPABCI-I, In-core algorithm is being used. 
 @TSPABCI-I, In-core algorithm is being used. 
 @CCENRG-I, CCSD/QCISD energy will now be evaluated. 
 @CCENRG-I, Correlation energies. ECCAA       -0.027981812388
                                  ECCBB       -0.011925433159
                                  ECCAB       -0.173390810142
                                  Total       -0.213298055690
 @CCENRG-I, Reference   energy     -55.589346968608
            CCSD/QCISD energy      -55.802645024298
          E4T (T(CCSD)) = -0.005298736831
          E5ST          =  0.000132148930
          E4ST          =  0.000000000000
          In other words  
          <T3[2](Dagger) D3  T3[2]> = -0.005298736831
          <T1   (Dagger) Q1 WT3[2]> =  0.000132148930
          <T2   (Dagger) Q2 FT3[2]> =  0.000000000000
        E(CCSD)           =     -55.802645024298
        E(CCSD + T(CCSD)) =     -55.807943761129
        E(CCSD(T))        =     -55.807811612198
  @CHECKOUT-I, Total execution time :       3.2300 seconds.
 --executable xvcc finished with status            0



  //>>>>>>>>>>>>>>>>>>>>>>>>>>>>>>>>>>>//
  //     Cfour cfour Energy Results    //
  //<<<<<<<<<<<<<<<<<<<<<<<<<<<<<<<<<<<//


  Variable Map:
  ----------------------------------------------------------------------------
  "(T) CORRECTION ENERGY"      =>      -0.005166587900
  "CCSD CORRELATION ENERGY"    =>      -0.213298055690
  "CCSD OPPOSITE-SPIN ENERGY"  =>      -0.173390810142
  "CCSD SAME-SPIN ENERGY"      =>      -0.039907245547
  "CCSD TOTAL ENERGY"          =>     -55.802645024298
  "CCSD(T) CORRELATION ENERGY" =>      -0.218464643590
  "CCSD(T) TOTAL ENERGY"       =>     -55.807811612198
  "CURRENT CORRELATION ENERGY" =>      -0.218464643590
  "CURRENT ENERGY"             =>     -55.807811612198
  "CURRENT REFERENCE ENERGY"   =>     -55.589346968608
  "MP2 CORRELATION ENERGY"     =>      -0.195530391773
  "MP2 OPPOSITE-SPIN ENERGY"   =>      -0.153914063533
  "MP2 SAME-SPIN ENERGY"       =>      -0.041616328240
  "MP2 TOTAL ENERGY"           =>     -55.784877360382
  "NUCLEAR REPULSION ENERGY"   =>       7.680541635300
  "SCF TOTAL ENERGY"           =>     -55.589346968608



*** PSI4 exiting successfully. Buy a developer a beer!
