
    -----------------------------------------------------------------------
          Psi4: An Open-Source Ab Initio Electronic Structure Package
                               Psi4 1.11a1.dev16 

                         Git: Rev {dlpno_ccsd_t_pr_branch} 3e5375e dirty


    D. G. A. Smith, L. A. Burns, A. C. Simmonett, R. M. Parrish,
    M. C. Schieber, R. Galvelis, P. Kraus, H. Kruse, R. Di Remigio,
    A. Alenaizan, A. M. James, S. Lehtola, J. P. Misiewicz, M. Scheurer,
    R. A. Shaw, J. B. Schriber, Y. Xie, Z. L. Glick, D. A. Sirianni,
    J. S. O'Brien, J. M. Waldrop, A. Kumar, E. G. Hohenstein,
    B. P. Pritchard, B. R. Brooks, H. F. Schaefer III, A. Yu. Sokolov,
    K. Patkowski, A. E. DePrince III, U. Bozkaya, R. A. King,
    F. A. Evangelista, J. M. Turney, T. D. Crawford, C. D. Sherrill,
    J. Chem. Phys. 152(18) 184108 (2020). https://doi.org/10.1063/5.0006002

                            Additional Code Authors
    E. T. Seidl, C. L. Janssen, E. F. Valeev, M. L. Leininger,
    J. F. Gonthier, R. M. Richard, H. R. McAlexander, M. Saitow, X. Wang,
    P. Verma, M. H. Lechner, A. Jiang, S. Behnle, A. G. Heide,
    M. F. Herbst, D. L. Poole, T. Győri, E. C. Mitchell, J. P. Pederson,
    and A. M. Wallace

             Previous Authors, Complete List of Code Contributors,
                       and Citations for Specific Modules
    https://github.com/psi4/psi4/blob/master/codemeta.json
    https://github.com/psi4/psi4/graphs/contributors
    https://psicode.org/psi4manual/master/introduction.html#citing-psifour

    -----------------------------------------------------------------------


    Psi4 started on: Wednesday, 03 December 2025 12:20PM

    Process ID: 3448465
    Host:       ra4-3
    PSIDATADIR: /home/aj48384/github/psi4/objdir_p4dev/stage/share/psi4
    Memory:     500.0 MiB
    Threads:    16
    Addons:     adcc, ambit, bse, c̶c̶t̶3̶, c̶f̶o̶u̶r̶, c̶h̶e̶m̶p̶s̶2̶, cppe, ddx, dftd3, dftd4, dkh, ecpint,
                einsums, f̶o̶r̶t̶e̶, g̶a̶u̶x̶c̶, gcp, gdma, geometric, g̶p̶u̶_̶d̶f̶c̶c̶,
                integratorxx, ipi, libefp, mdi, m̶p̶2̶d̶, m̶r̶c̶c̶, o̶o̶o̶,
                o̶p̶e̶n̶f̶e̶r̶m̶i̶o̶n̶p̶s̶i̶4̶, pcmsolver, p̶s̶i̶4̶f̶o̶c̶k̶c̶i̶, p̶s̶i̶x̶a̶s̶,
                r̶e̶s̶p̶, s̶i̶m̶i̶n̶t̶, s̶n̶s̶m̶p̶2̶, v̶2̶r̶d̶m̶_̶c̶a̶s̶s̶c̶f̶

  ==> Input File <==

--------------------------------------------------------------------------
#! comparison of DF-CCSD(T) and DLPNO-CCSD(T)
#! In the limit of zero PNO cutoffs, DF and DLPNO should exactly match
#! There should not be enough sparsity in water to affect the other parameters
#! The reference DF-CCSD(T) values are stored and not rerun

memory 2 GB

ref_scf                  =    -76.026787275597              #TEST

ref_dfccsd_corl          =     -0.211297075553              #TEST
ref_dfccsd_tot           =    -76.238084351147              #TEST
ref_dfccsd_t_corl        =     -0.214333036603              #TEST
ref_dfccsd_t_tot         =    -76.241120312197              #TEST

molecule h2o {
O
H 1 0.957
H 1 0.957 2 104.5
symmetry c1
}

set basis cc-pvdz
set freeze_core True
set scf_type df
set mp2_type df
set cc_type  df
set nat_orbs False
set e_convergence 1.0e-8
set r_convergence 1.0e-8
set t_cut_pno 0.0
set t_cut_do 0.0
set t_cut_mkn 0.0
set t_cut_tno 0.0
set t_cut_do_triples 0.0
set t_cut_mkn_triples 0.0

print('   Testing DLPNO-CCSD(T) ...')
val = energy('dlpno-ccsd(t)')

# The DLPNO-CCSD(T) energy should exactly match DF-CCSD(T) with these parameters
compare_values(ref_scf, variable('SCF TOTAL ENERGY'), 7, 'scf ref')                           #TEST
compare_values(ref_dfccsd_corl, variable('CCSD CORRELATION ENERGY'), 7, 'ccsd corl')          #TEST
compare_values(ref_dfccsd_tot, variable('CCSD TOTAL ENERGY'), 7, 'ccsd tot')                  #TEST
compare_values(ref_dfccsd_t_corl, variable('CCSD(T) CORRELATION ENERGY'), 7, 'ccsd(t) corl')  #TEST
compare_values(ref_dfccsd_t_tot, variable('CCSD(T) TOTAL ENERGY'), 7, 'ccsd(t) tot')          #TEST
compare_values(ref_scf, variable('CURRENT REFERENCE ENERGY'), 7, 'scf ref')                   #TEST
compare_values(ref_dfccsd_t_corl, variable('CURRENT CORRELATION ENERGY'), 7, 'ccsd(t) corl')  #TEST
compare_values(ref_dfccsd_t_tot, variable('CURRENT ENERGY'), 7, 'ccsd(t) tot')                #TEST
compare_values(ref_dfccsd_t_tot, val, 7, 'ccsd(t) return')                                    #TEST
clean()--------------------------------------------------------------------------

  Memory set to   1.863 GiB by Python driver.

Scratch directory: /tmp/
   => Libint2 <=

    Primary   basis highest AM E, G, H:  6, 6, 3
    Auxiliary basis highest AM E, G, H:  7, 7, 4
    Onebody   basis highest AM E, G, H:  -, -, -
    Solid Harmonics ordering:            Gaussian

*** tstart() called on ra4-3
*** at Wed Dec  3 12:20:23 2025

   => Loading Basis Set <=

    Name: CC-PVDZ
    Role: ORBITAL
    Keyword: BASIS
    atoms 1   entry O          line   198 file /home/aj48384/github/psi4/objdir_p4dev/stage/share/psi4/basis/cc-pvdz.gbs 
    atoms 2-3 entry H          line    22 file /home/aj48384/github/psi4/objdir_p4dev/stage/share/psi4/basis/cc-pvdz.gbs 


         ---------------------------------------------------------
                                   SCF
               by Justin Turney, Rob Parrish, Andy Simmonett
                          and Daniel G. A. Smith
                              RHF Reference
                       16 Threads,   1907 MiB Core
         ---------------------------------------------------------

  ==> Geometry <==

    Molecular point group: c1
    Full point group: C2v

    Geometry (in Angstrom), charge = 0, multiplicity = 1:

       Center              X                  Y                   Z               Mass       
    ------------   -----------------  -----------------  -----------------  -----------------
         O            0.000000000000     0.000000000000    -0.065570021889    15.994914619570
         H            0.000000000000    -0.756689922073     0.520321915104     1.007825032230
         H            0.000000000000     0.756689922073     0.520321915104     1.007825032230

  Running in c1 symmetry.

  Rotational constants: A =     27.43416  B =     14.60648  C =      9.53165 [cm^-1]
  Rotational constants: A = 822455.52651  B = 437891.14479  C = 285751.53189 [MHz]
  Nuclear repulsion =    9.196933714281483

  Charge       = 0
  Multiplicity = 1
  Electrons    = 10
  Nalpha       = 5
  Nbeta        = 5

  ==> Algorithm <==

  SCF Algorithm Type is DF.
  DIIS enabled.
  MOM disabled.
  Fractional occupation disabled.
  Guess Type is SAD.
  Energy threshold   = 1.00e-08
  Density threshold  = 1.00e-08
  Integral threshold = 1.00e-12

  ==> Primary Basis <==

  Basis Set: CC-PVDZ
    Blend: CC-PVDZ
    Number of shells: 12
    Number of basis functions: 24
    Number of Cartesian functions: 25
    Spherical Harmonics?: true
    Max angular momentum: 2

   => Loading Basis Set <=

    Name: (CC-PVDZ AUX)
    Role: JKFIT
    Keyword: DF_BASIS_SCF
    atoms 1   entry O          line   221 file /home/aj48384/github/psi4/objdir_p4dev/stage/share/psi4/basis/cc-pvdz-jkfit.gbs 
    atoms 2-3 entry H          line    51 file /home/aj48384/github/psi4/objdir_p4dev/stage/share/psi4/basis/cc-pvdz-jkfit.gbs 

  ==> Integral Setup <==

  DFHelper Memory: AOs need 0.001 GiB; user supplied 1.397 GiB. 
  SCF_SUBTYPE=INCORE selected. In-core MEM_DF algorithm will be used.
  Using in-core AOs.

  ==> MemDFJK: Density-Fitted J/K Matrices <==

    J tasked:                   Yes
    K tasked:                   Yes
    wK tasked:                   No
    OpenMP threads:              16
    Memory [MiB]:              1430
    Algorithm:                 Core
    Schwarz Cutoff:           1E-12
    Mask sparsity (%):       0.0000
    Fitting Condition:        1E-10

   => Auxiliary Basis Set <=

  Basis Set: (CC-PVDZ AUX)
    Blend: CC-PVDZ-JKFIT
    Number of shells: 42
    Number of basis functions: 116
    Number of Cartesian functions: 131
    Spherical Harmonics?: true
    Max angular momentum: 3

  Minimum eigenvalue in the overlap matrix is 3.4162833904E-02.
  Reciprocal condition number of the overlap matrix is 9.2080850101E-03.
    Using symmetric orthogonalization.

  ==> Pre-Iterations <==

  SCF Guess: Superposition of Atomic Densities via on-the-fly atomic UHF (no occupation information).

   -------------------------
    Irrep   Nso     Nmo    
   -------------------------
     A         24      24 
   -------------------------
    Total      24      24
   -------------------------

  ==> Iterations <==

                           Total Energy        Delta E     RMS |[F,P]|

   @DF-RHF iter SAD:   -76.48941727877551   -7.64894e+01   0.00000e+00 
   @DF-RHF iter   1:   -75.93130372714987    5.58114e-01   1.85420e-02 DIIS/ADIIS
   @DF-RHF iter   2:   -76.01221114038721   -8.09074e-02   8.48397e-03 DIIS/ADIIS
   @DF-RHF iter   3:   -76.02600788775182   -1.37967e-02   1.76048e-03 DIIS/ADIIS
   @DF-RHF iter   4:   -76.02676017888652   -7.52291e-04   2.49611e-04 DIIS/ADIIS
   @DF-RHF iter   5:   -76.02678632498100   -2.61461e-05   4.88429e-05 DIIS
   @DF-RHF iter   6:   -76.02678725036834   -9.25387e-07   6.08573e-06 DIIS
   @DF-RHF iter   7:   -76.02678727509563   -2.47273e-08   9.81413e-07 DIIS
   @DF-RHF iter   8:   -76.02678727559206   -4.96428e-10   9.53608e-08 DIIS
   @DF-RHF iter   9:   -76.02678727559483   -2.77112e-12   7.39592e-09 DIIS
  Energy and wave function converged.


  ==> Post-Iterations <==

    Orbital Energies [Eh]
    ---------------------

    Doubly Occupied:                                                      

       1A    -20.550396     2A     -1.336833     3A     -0.699409  
       4A     -0.566642     5A     -0.493163  

    Virtual:                                                              

       6A      0.185614     7A      0.256287     8A      0.789487  
       9A      0.854656    10A      1.163645    11A      1.200456  
      12A      1.253394    13A      1.444812    14A      1.476790  
      15A      1.675235    16A      1.867468    17A      1.935894  
      18A      2.453618    19A      2.491350    20A      3.286614  
      21A      3.339622    22A      3.511619    23A      3.866679  
      24A      4.148184  

    Final Occupation by Irrep:
              A 
    DOCC [     5 ]
    NA   [     5 ]
    NB   [     5 ]

  @DF-RHF Final Energy:   -76.02678727559483

   => Energetics <=

    Nuclear Repulsion Energy =              9.1969337142814833
    One-Electron Energy =                -123.1545542581357893
    Two-Electron Energy =                  37.9308332682594838
    Total Energy =                        -76.0267872755948133

Computation Completed


Properties will be evaluated at   0.000000,   0.000000,   0.000000 [a0]

Properties computed using the SCF density matrix


 Multipole Moments:

 ------------------------------------------------------------------------------------
     Multipole            Electronic (a.u.)      Nuclear  (a.u.)        Total (a.u.)
 ------------------------------------------------------------------------------------

 L = 1.  Multiply by 2.5417464519 to convert [e a0] to [Debye]
 Dipole X            :         -0.0000000            0.0000000           -0.0000000
 Dipole Y            :         -0.0000000            0.0000000           -0.0000000
 Dipole Z            :         -0.1661035            0.9752568            0.8091533
 Magnitude           :                                                    0.8091533

 ------------------------------------------------------------------------------------

*** tstop() called on ra4-3 at Wed Dec  3 12:20:23 2025
Module time:
	user time   =       3.54 seconds =       0.06 minutes
	system time =       0.37 seconds =       0.01 minutes
	total time  =          0 seconds =       0.00 minutes
Total time:
	user time   =       3.54 seconds =       0.06 minutes
	system time =       0.37 seconds =       0.01 minutes
	total time  =          0 seconds =       0.00 minutes

*** tstart() called on ra4-3
*** at Wed Dec  3 12:20:23 2025


  //>>>>>>>>>>>>>>>>>>>>>>>>>>>>>>>>>>>//
  //           DLPNO-CCSD(T)           //
  //<<<<<<<<<<<<<<<<<<<<<<<<<<<<<<<<<<<//

   => Loading Basis Set <=

    Name: (CC-PVDZ AUX)
    Role: RIFIT
    Keyword: DF_BASIS_CC
    atoms 1   entry O          line   235 file /home/aj48384/github/psi4/objdir_p4dev/stage/share/psi4/basis/cc-pvdz-ri.gbs 
    atoms 2-3 entry H          line    19 file /home/aj48384/github/psi4/objdir_p4dev/stage/share/psi4/basis/cc-pvdz-ri.gbs 

   --------------------------------------------
                    DLPNO-CCSD                 
                   by Andy Jiang               
              DOI: 10.1063/5.0219963           
   --------------------------------------------

  DLPNO convergence set to NORMAL.

  Detailed DLPNO thresholds and cutoffs:
    T_CUT_PNO        = 0.0000e+00 
    T_DIAG_SCALE     = 3.0000e-02 
    T_CORE_SCALE     = 1.0000e-02 
    T_CUT_TRACE      = 9.9000e-01 
    T_CUT_ENERGY     = 9.9000e-01 
    T_CUT_PAIRS      = 1.0000e-04 
    T_CUT_PAIRS_MP2  = 1.0000e-06 
    T_CUT_PRE        = 1.0000e-06 
    T_CUT_DO_PRE     = 3.0000e-02 
    T_CUT_MKN        = 0.0000e+00 
    T_CUT_PNO_MP2    = 3.3300e-09 
    T_CUT_TRACE_MP2  = 9.9900e-01 
    T_CUT_ENERGY_MP2 = 9.9700e-01 
    T_CUT_DO         = 0.0000e+00 
    T_CUT_DO_ij      = 1.0000e-05 
    T_CUT_DO_uv      = 1.0000e-05 
    T_CUT_CLMO       = 1.0000e-03 
    T_CUT_CPAO       = 1.0000e-03 
    S_CUT            = 1.0000e-08 
    F_CUT            = 1.0000e-05 
    INTS_TOL (AO)    = 1.0000e-10 
    MIN_PNOS         =      5   


  ==> Basis Set Information <==

   ----------------------------------------------
      NBF   NFRZC   NACT   NDOCC   NVIR   NAUX   
   ----------------------------------------------
       24      1      4       5      19     84
   ----------------------------------------------

  ==> Boys Localizer <==

    Convergence =   1.000E-12
    Maxiter     =        1000

    Iteration                   Metric       Residual
    @Boys    0   1.8043922026126197E-01              -
    @Boys    1   2.2054591534110175E+00   1.122273E+01
    @Boys    2   2.4972534340667769E+00   1.323055E-01
    @Boys    3   2.5360980532143840E+00   1.555494E-02
    @Boys    4   2.5411325011908499E+00   1.985116E-03
    @Boys    5   2.5415119474585759E+00   1.493217E-04
    @Boys    6   2.5415848060570791E+00   2.866742E-05
    @Boys    7   2.5415953775929272E+00   4.159427E-06
    @Boys    8   2.5415973133869274E+00   7.616452E-07
    @Boys    9   2.5415975678805882E+00   1.001314E-07
    @Boys   10   2.5415976421073614E+00   2.920477E-08
    @Boys   11   2.5415976500156630E+00   3.111547E-09
    @Boys   12   2.5415976518215091E+00   7.105161E-10
    @Boys   13   2.5415976521237651E+00   1.189236E-10
    @Boys   14   2.5415976521706942E+00   1.846442E-11
    @Boys   15   2.5415976521767565E+00   2.385217E-12
    @Boys   16   2.5415976521775825E+00   3.249948E-13

    Boys Localizer converged.

  ==> Crude Prescreening (Determines Semicanonical-MP2 Pairs) <==

    T_CUT_MKN set to 0.000e+00
    T_CUT_DO  set to 0.000e+00

  ==> Forming Local MO Domains <==

    Auxiliary BFs per Local MO:
      Average =   84 AUX BFs (3 atoms)
      Min     =   84 AUX BFs (3 atoms)
      Max     =   84 AUX BFs (3 atoms)
  
    Projected AOs per Local MO:
      Average =   24 PAOs (3 atoms)
      Min     =   24 PAOs (3 atoms)
      Max     =   24 PAOs (3 atoms)

    Local MOs per Local MO:
      Average =    4 LMOs
      Min     =    4 LMOs
      Max     =    4 LMOs
 
    Screened 0 of 16 LMO pairs (0.00 %)
             0 pairs met overlap criteria
             4 pairs met energy criteria
 
    Screened LMO pair energy =  0.000000000000 

  ==> Merging LMO Domains into LMO Pair Domains <==
  
    Auxiliary BFs per Local MO pair:
      Average =   84 AUX BFs (3 atoms)
      Min     =   84 AUX BFs (3 atoms)
      Max     =   84 AUX BFs (3 atoms)
  
    Local MOs per Local MO pair:
      Average =    4 LMOs
      Min     =    4 LMOs
      Max     =    4 LMOs
  
    Projected AOs per Local MO pair:
      Average =   24 PAOs (3 atoms)
      Min     =   24 PAOs (3 atoms)
      Max     =   24 PAOs (3 atoms)

  ==> Transforming 3-Index Integrals to LMO/PAO basis <==

  ==> Initial semi-canonical MP2 prescreening of pairs <==

  ==> Semi-Canonical MP2 Pair Prescreening <==

    Eliminated Pairs (SC-LMP2)         = 0
    Surviving Pairs                    = 16
    Surviving Pairs / Non-dipole Pairs = (100.00 %)
    Eliminated Pair dE                 = 0.000000000000

  ==> Refined Prescreening (Determines Strong and Weak Pairs) <==

    T_CUT_MKN reset to 0.000e+00
    T_CUT_DO  reset to 0.000e+00

  ==> Forming Local MO Domains <==

    Auxiliary BFs per Local MO:
      Average =   84 AUX BFs (3 atoms)
      Min     =   84 AUX BFs (3 atoms)
      Max     =   84 AUX BFs (3 atoms)
  
    Projected AOs per Local MO:
      Average =   24 PAOs (3 atoms)
      Min     =   24 PAOs (3 atoms)
      Max     =   24 PAOs (3 atoms)

    Local MOs per Local MO:
      Average =    4 LMOs
      Min     =    4 LMOs
      Max     =    4 LMOs

  ==> Merging LMO Domains into LMO Pair Domains <==
  
    Auxiliary BFs per Local MO pair:
      Average =   84 AUX BFs (3 atoms)
      Min     =   84 AUX BFs (3 atoms)
      Max     =   84 AUX BFs (3 atoms)
  
    Local MOs per Local MO pair:
      Average =    4 LMOs
      Min     =    4 LMOs
      Max     =    4 LMOs
  
    Projected AOs per Local MO pair:
      Average =   24 PAOs (3 atoms)
      Min     =   24 PAOs (3 atoms)
      Max     =   24 PAOs (3 atoms)

    Coefficient sparsity in AO -> LMO transform:   0.00 % 
    Coefficient sparsity in AO -> PAO transform:   0.00 % 
    Coefficient sparsity in combined transforms:   0.00 % 

    Storing transformed LMO/LMO, LMO/PAO, and PAO/PAO integrals in sparse format.
    Required memory: 0.000 GiB (0.00 % reduction from dense format) 

  ==> Transforming 3-Index Integrals to LMO/PAO basis <==

  ==> Determining Strong and Weak Pairs (Refined Prescreening Step) <==

  ==> Forming Pair Natural Orbitals (for LMP2) <==
  
    Natural Orbitals per Local MO pair:
      Avg:  19 NOs 
      Min:  19 NOs 
      Max:  19 NOs 

      Avg Occ Number Tol: 9.438e-08 
      Min Occ Number Tol: 4.624e-09 
      Max Occ Number Tol: 2.459e-07 

      Avg Trace Sum: 1.000000 
      Min Trace Sum: 1.000000 
      Max Trace Sum: 1.000000 

      Avg Energy Ratio: 1.000000 
      Min Energy Ratio: 1.000000 
      Max Energy Ratio: 1.000000 

    PNO truncation energy = 0.000000000000

  ==> PNO-LMP2 Memory Estimate <== 

    (q | i a) [AUX, LMO, PAO]  :    0.000 [GB]
    X^{PNO}_{u_{ij} a_{ij}}    :    0.000 [GB]
    (i a_{ij} | j b_{ij})      :    0.000 [GB]
    T_{ij}^{a_{ij} b_{ij}}     :    0.000 [GB]
    U_{ij}^{a_{ij} b_{ij}}     :    0.000 [GB]
    PNO overlaps               :    0.000 [GB]
    Total Memory Required      :    0.000 [GB]
    Total Memory Given         :    2.000 [GB]


  ==> Iterative Local MP2 with Pair Natural Orbitals (PNOs) <==

    E_CONVERGENCE = 1.00e-10
    R_CONVERGENCE = 1.00e-10

                         Corr. Energy    Delta E     Max R     Time (s)
  @PNO-LMP2 iter   1:  -0.199401937748 -1.994e-01  1.301e-03        0
  @PNO-LMP2 iter   2:  -0.201425480957 -2.024e-03  3.492e-04        0
  @PNO-LMP2 iter   3:  -0.201560114037 -1.346e-04  6.909e-05        0
  @PNO-LMP2 iter   4:  -0.201577949969 -1.784e-05  1.361e-05        0
  @PNO-LMP2 iter   5:  -0.201578967380 -1.017e-06  1.581e-06        0
  @PNO-LMP2 iter   6:  -0.201579145534 -1.782e-07  2.801e-07        0
  @PNO-LMP2 iter   7:  -0.201579146905 -1.372e-09  5.088e-08        0
  @PNO-LMP2 iter   8:  -0.201579130133  1.677e-08  1.044e-08        0
  @PNO-LMP2 iter   9:  -0.201579128469  1.664e-09  1.787e-09        0
  @PNO-LMP2 iter  10:  -0.201579127662  8.077e-10  3.459e-10        0
  @PNO-LMP2 iter  11:  -0.201579127641  2.076e-11  9.287e-11        0

  ==> Final Strong and Weak Pairs <==

    Weak Pairs                      = 0
    Strong Pairs                    = 16
    Strong Pairs / Total Pairs      = (100.00 %)
  
  Total DLPNO-MP2 Correlation Energy:  -0.201579127641 
    MP2 Correlation Energy:            -0.201579127641 
    Semicanonical MP2 Correction:       0.000000000000 
    Dipole Correction:                  0.000000000000 
    PNO Truncation Correction:          0.000000000000 


  @Total DLPNO-MP2 Energy: -76.228366403236 

   * WARNING: This answer will likely vary from one obtained by a energy('dlpno-mp2') call
                due to lack of a semi-canonical MP2 prescreening step in DLPNO-MP2, as well
                as slightly tighter cutoffs utilized to increase accuracy in the context of CC!!!


    Auxiliary BFs per Local MO:
      Average =   84 AUX BFs (3 atoms)
      Min     =   84 AUX BFs (3 atoms)
      Max     =   84 AUX BFs (3 atoms)
  
    Projected AOs per Local MO:
      Average =   24 PAOs (3 atoms)
      Min     =   24 PAOs (3 atoms)
      Max     =   24 PAOs (3 atoms)

    Local MOs per Local MO:
      Average =    4 LMOs
      Min     =    4 LMOs
      Max     =    4 LMOs

  ==> Merging LMO Domains into LMO Pair Domains <==
  
    Auxiliary BFs per Local MO pair:
      Average =   84 AUX BFs (3 atoms)
      Min     =   84 AUX BFs (3 atoms)
      Max     =   84 AUX BFs (3 atoms)
  
    Local MOs per Local MO pair:
      Average =    4 LMOs
      Min     =    4 LMOs
      Max     =    4 LMOs
  
    Projected AOs per Local MO pair:
      Average =   24 PAOs (3 atoms)
      Min     =   24 PAOs (3 atoms)
      Max     =   24 PAOs (3 atoms)

  ==> Forming Pair Natural Orbitals (for LCCSD) <==
  
    Natural Orbitals per Local MO pair:
      Avg:  19 NOs 
      Min:  19 NOs 
      Max:  19 NOs 

      Avg Occ Number Tol: 1.266e-07 
      Min Occ Number Tol: 5.071e-09 
      Max Occ Number Tol: 3.469e-07 

      Avg Trace Sum: 1.000000 
      Min Trace Sum: 1.000000 
      Max Trace Sum: 1.000000 

      Avg Energy Ratio: 1.000000 
      Min Energy Ratio: 1.000000 
      Max Energy Ratio: 1.000000 

    LMP2 Weak Pair energy = 0.000000000000
    PNO truncation energy = -0.000000000000

  ==> Transforming 3-Index Integrals to LMO/LMO basis <==

  ==> Transforming 3-Index Integrals to PAO/PAO basis <==

    * PAO/PAO Integral Memory After Screening: 0.000 [GiB]

  ==> DLPNO-CCSD Memory Requirements <== 

    *** Common Quantities ***
    (q | i j) [AUX, LMO]          :    0.000 [GB]
    (q | i a) [AUX, LMO, PAO]     :    0.000 [GB]
    (q | a b) [AUX, PAO]          :    0.000 [GB]
    (k_{ij}, l_{ij})-like         :    0.000 [GB]
    (k_{ij}, c_{ij})-like         :    0.000 [GB]
    (a_{ij}, b_{ij})-like         :    0.000 [GB]
    (a_{ij}, c_{kj})-like         :    0.000 [GB]
    (i a_{ij} | b_{ij}, c_{ij})   :    0.001 [GB]
    (Q_{ij} | k_{ij} i)           :    0.000 [GB]
    (Q_{ij} | a_{ij} i)           :    0.000 [GB]
    (Q_{ij} | m_{ij} a_{ij})      :    0.001 [GB]
    (Q_{ij} | a_{ij} b_{ij})      :    0.002 [GB]

    *** Maximum ERI buffer space of 0.001 [GB] per pair, over 16 threads...

    Buffer Space for ERIs         :    0.011 [GB]
    Total Memory Required (ERIs)  :    0.016 [GB]

    *** Quantities for LCCSD Iterations ***
    PNO overlaps                  :    0.000 [GB]

    *** Maximum CCSD buffer space of 0.001 [GB] per pair, over 16 threads...

    Buffer Space for Iterations   :    0.009 [GB]
    Total Memory Required (LCCSD) :    0.015 [GB]

    Total Memory Given            :    2.000 [GB]

    Using high memory PNO overlap algorithm... 

    Storing (Q_{ij}|m_{ij} a_{ij}) integrals in RAM... 

    Storing (Q_{ij}|a_{ij} b_{ij}) integrals in RAM... 

    Computing integrals in the PNO basis from PAO integrals...

    Integral Computation Complete!!! Time Elapsed:    0 seconds


  ==> Local CCSD <==

    E_CONVERGENCE = 1.00e-08
    R_CONVERGENCE = 1.00e-08

                      Corr. Energy    Delta E     Max R1     Max R2     Time (s)
  @LCCSD iter   1:  -0.207114556595 -2.071e-01  4.344e-03  2.179e-03        0
  @LCCSD iter   2:  -0.210523793594 -3.409e-03  8.737e-04  7.670e-04        0
  @LCCSD iter   3:  -0.211074817090 -5.510e-04  2.893e-04  2.191e-04        0
  @LCCSD iter   4:  -0.211262123607 -1.873e-04  9.798e-05  7.121e-05        0
  @LCCSD iter   5:  -0.211293389756 -3.127e-05  3.977e-05  1.716e-05        0
  @LCCSD iter   6:  -0.211294592098 -1.202e-06  2.211e-05  5.952e-06        0
  @LCCSD iter   7:  -0.211295280389 -6.883e-07  9.268e-06  2.736e-06        0
  @LCCSD iter   8:  -0.211296116781 -8.364e-07  4.045e-06  9.260e-07        0
  @LCCSD iter   9:  -0.211296682737 -5.660e-07  1.510e-06  3.303e-07        0
  @LCCSD iter  10:  -0.211296876106 -1.934e-07  5.664e-07  1.172e-07        0
  @LCCSD iter  11:  -0.211296998213 -1.221e-07  1.523e-07  5.533e-08        0
  @LCCSD iter  12:  -0.211297028541 -3.033e-08  6.749e-08  1.951e-08        0
  @LCCSD iter  13:  -0.211297042218 -1.368e-08  1.669e-08  8.642e-09        0
  @LCCSD iter  14:  -0.211297046949 -4.731e-09  8.217e-09  3.318e-09        0

  T1 Diagnostic: 0.00588185 
  
  Total DLPNO-CCSD Correlation Energy:  -0.211297046949 
    CCSD Correlation Energy:            -0.211297046949 
    Weak Pair Contribution:              0.000000000000 
    Semicanonical MP2 Correction:        0.000000000000 
    Dipole Pair Correction:              0.000000000000 
    PNO Truncation Correction:          -0.000000000000 


  @Total DLPNO-CCSD Energy: -76.238084322544 
    *** Wow, that was fast! A thousand hallelujahs!!! 

   --------------------------------------------
                    DLPNO-CCSD(T)              
                    by Andy Jiang              
               DOI: 10.1063/5.0219963          
   --------------------------------------------

  DLPNO convergence set to NORMAL.

  Detailed DLPNO thresholds and cutoffs:
    ALGORITHM    = ITERATIVE (T)   
    T_CUT_TNO (T0)             = 0.000e+00 
    T_CUT_DO_TRIPLES (T0)      = 0.000e+00 
    T_CUT_MKN_TRIPLES (T0)     = 0.000e+00 
    T_CUT_TRIPLES_WEAK (T0)    = 1.000e-08 
    T_CUT_TNO_PRE (T0)         = 1.000e-07 
    T_CUT_DO_TRIPLES_PRE (T0)  = 2.000e-02 
    T_CUT_MKN_TRIPLES_PRE (T0) = 1.000e-01 
    T_CUT_TNO_STRONG (T)       = 0.000e+00 
    T_CUT_TNO_WEAK (T)         = 0.000e+00 
    F_CUT_T (T)                = 1.000e-03 
    T_CUT_ITER (T)             = 1.000e-05 
    MIN_TNOS                   =      9   
    TRIPLES_MAX_WEAK_PAIRS     =      1   



   Starting Triplet Prescreening...
     T_CUT_TNO set to 1.000e-07 
     T_CUT_DO  set to 2.000e-02 
     T_CUT_MKN set to 1.000e-01 

  
    Number of (Unique) Local MO triplets: 16
    Max Number of Possible (Unique) LMO Triplets: 16 (Ratio: 1.0000)
    Natural Orbitals per Local MO triplet:
      Avg:  19 NOs 
      Min:  19 NOs 
      Max:  19 NOs 
  
    (Relavent) Semicanonical LCCSD(T0) Computation Complete!!! Time Elapsed:    0 seconds


   Continuing computation with surviving triplets...
     Eliminated all triples with energy less than 1.000e-08 Eh... 

    * Energy Contribution From Screened Triplets: 0.000000000000 

     T_CUT_TNO (re)set to 0.000e+00 
     T_CUT_DO  (re)set to 0.000e+00 
     T_CUT_MKN (re)set to 0.000e+00 

  
    Number of (Unique) Local MO triplets: 16
    Max Number of Possible (Unique) LMO Triplets: 16 (Ratio: 1.0000)
    Natural Orbitals per Local MO triplet:
      Avg:  19 NOs 
      Min:  19 NOs 
      Max:  19 NOs 
  
    (Relavent) Semicanonical LCCSD(T0) Computation Complete!!! Time Elapsed:    0 seconds

    DLPNO-CCSD(T0) Correlation Energy:  -0.214217546179 
    * DLPNO-CCSD Contribution:          -0.211297046949 
    * DLPNO-(T0) Contribution:          -0.002920499230 
    * Screened Triplets Contribution:    0.000000000000 



  ==> Computing Full Iterative (T) <==

  ==> Sorting Triplets <== 

    Number of Strong Triplets:     14, Total Triplets:     16, Ratio: 0.8750

     T_CUT_TNO (re)set to 0.000e+00 for strong triples 
     T_CUT_TNO (re)set to 0.000e+00 for weak triples   

  
    Number of (Unique) Local MO triplets: 16
    Max Number of Possible (Unique) LMO Triplets: 16 (Ratio: 1.0000)
    Natural Orbitals per Local MO triplet:
      Avg:  19 NOs 
      Min:  19 NOs 
      Max:  19 NOs 
  

  ==> DLPNO-(T) Memory Requirements <== 

    (q | i j) integrals    : 0.000 [GB]
    (q | i a) integrals    : 0.000 [GB]
    (q | a b) integrals    : 0.000 [GB]
    W_{ijk}^{abc}          : 0.001 [GB]
    V_{ijk}^{abc}          : 0.001 [GB]
    T_{ijk}^{abc}          : 0.001 [GB]
    Total Memory Required  : 0.003 [GB]
    Total Memory Given     : 2.000 [GB]

    Storing all X_{ijk}^{abc} quantities in RAM...

    (Relavent) Semicanonical LCCSD(T0) Computation Complete!!! Time Elapsed:    0 seconds


  ==> Local CCSD(T) <==

    E_CONVERGENCE = 1.00e-08
    R_CONVERGENCE = 1.00e-08

                         Corr. Energy    Delta E     Max R     Time (s)
  @LCCSD(T) iter   1:  -0.003017754612 -3.018e-03  2.698e-05        0
  @LCCSD(T) iter   2:  -0.003035188381 -1.743e-05  4.175e-06        0
  @LCCSD(T) iter   3:  -0.003035714066 -5.257e-07  9.876e-07        0
  @LCCSD(T) iter   4:  -0.003035966082 -2.520e-07  3.412e-07        0
  @LCCSD(T) iter   5:  -0.003035953395  1.269e-08  1.521e-07        0
  @LCCSD(T) iter   6:  -0.003035956179 -2.784e-09  6.771e-08        0
  @LCCSD(T) iter   7:  -0.003035956179 -4.337e-19  0.000e+00        0

    DLPNO-CCSD(T0) energy at looser tolerance:  -0.002920499230
    DLPNO-CCSD(T)  energy at looser tolerance:  -0.003035956179
    * Net Iterative (T) contribution:           -0.000115456950

  
  Total DLPNO-CCSD(T) Correlation Energy:  -0.214333003128 
    DLPNO-CCSD Contribution:               -0.211297046949 
    DLPNO-(T) Contribution:                -0.003035956179 
    Screened Triplets Contribution:         0.000000000000 


  @Total DLPNO-CCSD(T) Energy: -76.241120278723 
    *** Andy Jiang... FOR THREEEEEEEEEEE!!!


*** tstop() called on ra4-3 at Wed Dec  3 12:20:24 2025
Module time:
	user time   =       4.32 seconds =       0.07 minutes
	system time =       0.45 seconds =       0.01 minutes
	total time  =          1 seconds =       0.02 minutes
Total time:
	user time   =       7.87 seconds =       0.13 minutes
	system time =       0.82 seconds =       0.01 minutes
	total time  =          1 seconds =       0.02 minutes
    scf ref...............................................................................PASSED
    ccsd corl.............................................................................PASSED
    ccsd tot..............................................................................PASSED
    ccsd(t) corl..........................................................................PASSED
    ccsd(t) tot...........................................................................PASSED
    scf ref...............................................................................PASSED
    ccsd(t) corl..........................................................................PASSED
    ccsd(t) tot...........................................................................PASSED
    ccsd(t) return........................................................................PASSED

    Psi4 stopped on: Wednesday, 03 December 2025 12:20PM
    Psi4 wall time for execution: 0:00:00.63

*** Psi4 exiting successfully. Buy a developer a beer!
