    -----------------------------------------------------------------------
          PSI4: An Open-Source Ab Initio Electronic Structure Package
                              PSI 4.0.0-beta5+ Driver

               Git: Rev {master} eda4a1ca32845430f4e7da33e06be80187e12af0

    J. M. Turney, A. C. Simmonett, R. M. Parrish, E. G. Hohenstein,
    F. A. Evangelista, J. T. Fermann, B. J. Mintz, L. A. Burns, J. J. Wilke,
    M. L. Abrams, N. J. Russ, M. L. Leininger, C. L. Janssen, E. T. Seidl,
    W. D. Allen, H. F. Schaefer, R. A. King, E. F. Valeev, C. D. Sherrill,
    and T. D. Crawford, WIREs Comput. Mol. Sci. 2, 556-565 (2012)
    (doi: 10.1002/wcms.93)

                         Additional Contributions by
    A. E. DePrince, M. Saitow, U. Bozkaya, A. Yu. Sokolov
    -----------------------------------------------------------------------

    Process ID:  89298
    PSI4DATADIR: /Users/andysim/programming/psi4/lib

    Using LocalCommunicator (Number of processes = 1)

    Memory level set to 256.000 MB

  ==> Input File <==

--------------------------------------------------------------------------
#! Benzene vertical singlet-triplet energy difference computation, using the
#! PubChem database to obtain the initial geometry, at the UHF an ROHF levels of theory.

memory 250 mb

molecule benz{
    pubchem:benzene
}

set {
   basis     sto-3g
   reference rhf
   max_energy_g_convergence 8
}

optimize('scf')

set basis cc-pvdz
e_sing_rhf = energy('scf')
benz.set_multiplicity(3)
#
# We could have specified a triplet C6H6 molecule with the following
#
#molecule benz {
#    0 3
#    pubchem:benzene
#}
set reference rohf
e_trip_rohf = energy('scf')
set reference uhf
e_trip_uhf  = energy('scf')

vertical_uhf  = psi_hartree2ev * (e_trip_uhf  - e_sing_rhf)
vertical_rohf = psi_hartree2ev * (e_trip_rohf - e_sing_rhf)
print_out("\nSinglet-Triplet gap (vertical, UHF)   = %8.2f eV\n" % vertical_uhf)
print_out("\nSinglet-Triplet gap (vertical, ROHF)  = %8.2f eV\n" % vertical_rohf)

enuc  =  204.531600152395043                                                         #TEST
erhf  = -230.72190557842444                                                          #TEST
erohf = -230.4166131085004849                                                        #TEST
euhf  = -230.5397290551616720                                                        #TEST
compare_values(enuc, benz.nuclear_repulsion_energy(), 3, "Nuclear repulsion energy") #TEST 
compare_values(erhf,  e_sing_rhf,  6, "Singlet benzene RHF energy")                  #TEST 
compare_values(erohf, e_trip_rohf, 6, "Triplet benzene UHF energy")                  #TEST 
compare_values(euhf,  e_trip_uhf,  6, "Triplet benzene ROHF energy")                 #TEST 
--------------------------------------------------------------------------

  Memory set to 250.000 MiB by Python script.

  No DF_BASIS_SCF auxiliary basis selected, defaulting to cc-pvdz-ri


*** tstart() called on QuickSilver.local
*** at Mon Jul  7 15:38:07 2014

	There are an even number of electrons - assuming singlet.
	Specify the multiplicity with the MULTP option in the
	input if this is incorrect


         ---------------------------------------------------------
                                   SCF
            by Justin Turney, Rob Parrish, and Andy Simmonett
                              RHF Reference
                        1 Threads,    250 MiB Core
         ---------------------------------------------------------

  ==> Geometry <==

    Molecular point group: d2h
    Full point group: D2h

    Geometry (in Angstrom), charge = 0, multiplicity = 1:

       Center              X                  Y                   Z       
    ------------   -----------------  -----------------  -----------------
           C         -0.000000000000     0.999999999997     0.000000000000
           C         -0.865999999997     0.499999999998     0.000000000000
           C          0.865999999997     0.499999999998     0.000000000000
           C         -0.865999999997    -0.499999999998     0.000000000000
           C          0.865999999997    -0.499999999998     0.000000000000
           C          0.000000000000    -0.999999999997     0.000000000000
           H         -0.000000000000     1.619999999995     0.000000000000
           H         -1.402949999995     0.809999999997     0.000000000000
           H          1.402949999995     0.809999999997     0.000000000000
           H         -1.402949999995    -0.809999999997     0.000000000000
           H          1.402949999995    -0.809999999997     0.000000000000
           H          0.000000000000    -1.619999999995     0.000000000000

  Running in d2h symmetry.


	Rotational constants (cm^-1):
	A =    0.38372    B =    0.38370   C =    0.19185

	Rotational constants (MHz):
	A = 11503.51565    B = 11502.92962   C = 5751.61131
  Nuclear repulsion =  294.001423815813951

  Charge       = 0
  Multiplicity = 1
  Electrons    = 42
  Nalpha       = 21
  Nbeta        = 21

  ==> Algorithm <==

  SCF Algorithm Type is DF.
  DIIS enabled.
  MOM disabled.
  Fractional occupation disabled.
  Guess Type is CORE.
  Energy threshold   = 1.00e-08
  Density threshold  = 1.00e-08
  Integral threshold = 0.00e+00

  ==> Primary Basis <==

  Basis Set: STO-3G
    Number of shells: 24
    Number of basis function: 36
    Number of Cartesian functions: 36
    Spherical Harmonics?: true
    Max angular momentum: 1

  ==> Pre-Iterations <==

   -------------------------------------------------------
    Irrep   Nso     Nmo     Nalpha   Nbeta   Ndocc  Nsocc
   -------------------------------------------------------
     Ag         9       9       0       0       0       0
     B1g        6       6       0       0       0       0
     B2g        1       1       0       0       0       0
     B3g        2       2       0       0       0       0
     Au         1       1       0       0       0       0
     B1u        2       2       0       0       0       0
     B2u        9       9       0       0       0       0
     B3u        6       6       0       0       0       0
   -------------------------------------------------------
    Total      36      36      21      21      21       0
   -------------------------------------------------------

 OEINTS: Wrapper to libmints.
   by Justin Turney

   Calculation information:
      Number of atoms:                  12
      Number of AO shells:              24
      Number of SO shells:               8
      Number of primitives:             72
      Number of atomic orbitals:        36
      Number of basis functions:        36

      Number of irreps:                  8
      Number of functions per irrep: [   9    6    1    2    1    2    9    6 ]

      Overlap, kinetic, potential, dipole, and quadrupole integrals
        stored in file 35.

  ==> Integral Setup <==

  ==> DFJK: Density-Fitted J/K Matrices <==

    J tasked:                  Yes
    K tasked:                  Yes
    wK tasked:                  No
    OpenMP threads:              1
    Integrals threads:           1
    Memory (MB):               178
    Algorithm:                Core
    Integral Cache:           NONE
    Schwarz Cutoff:          1E-12
    Fitting Condition:       1E-12

   => Auxiliary Basis Set <=

  Basis Set: cc-pvdz-ri
    Number of shells: 144
    Number of basis function: 420
    Number of Cartesian functions: 486
    Spherical Harmonics?: true
    Max angular momentum: 3

  Minimum eigenvalue in the overlap matrix is 2.1954748017E-02.
  Using Symmetric Orthogonalization.
  SCF Guess: Core (One-Electron) Hamiltonian.

  ==> Iterations <==

                           Total Energy        Delta E     RMS |[F,P]|

   @DF-RHF iter   1:  -199.86109464585098   -1.99861e+02   2.46848e-01 
   @DF-RHF iter   2:  -220.99743099835746   -2.11363e+01   1.40051e-01 DIIS
   @DF-RHF iter   3:  -222.78898882577823   -1.79156e+00   2.67523e-02 DIIS
   @DF-RHF iter   4:  -222.85885174801888   -6.98629e-02   1.93157e-03 DIIS
   @DF-RHF iter   5:  -222.85920724580501   -3.55498e-04   2.80274e-04 DIIS
   @DF-RHF iter   6:  -222.85921495850425   -7.71270e-06   1.54697e-05 DIIS
   @DF-RHF iter   7:  -222.85921498309949   -2.45952e-08   8.79959e-07 DIIS
   @DF-RHF iter   8:  -222.85921498318646   -8.69704e-11   4.06558e-08 DIIS
   @DF-RHF iter   9:  -222.85921498318669   -2.27374e-13   1.53049e-09 DIIS

  ==> Post-Iterations <==

	Orbital Energies (a.u.)
	-----------------------

	Doubly Occupied:                                                      

	   1Ag   -11.227404     1B2u  -11.221059     1B3u  -11.221048  
	   2Ag   -11.206148     1B1g  -11.206141     2B2u  -11.199092  
	   3Ag    -1.556926     3B2u   -1.250834     2B3u   -1.250818  
	   4Ag    -1.082143     2B1g   -1.044665     5Ag    -1.044662  
	   3B3u   -0.879607     1B1u   -0.843367     4B2u   -0.800077  
	   4B3u   -0.800041     5B2u   -0.747689     6Ag    -0.583761  
	   3B1g   -0.583757     1B3g   -0.537816     1B2g   -0.537794  

	Virtual:                                                              

	   1Au     0.303713     2B1u    0.303723     2B3g    0.792373  
	   7Ag     1.112641     6B2u    1.136304     5B3u    1.136323  
	   4B1g    1.487334     8Ag     1.487401     6B3u    1.700844  
	   7B2u    1.700844     5B1g    1.972645     8B2u    2.006459  
	   6B1g    2.015865     9Ag     2.015906     9B2u    2.613941  

	Final Occupation by Irrep:
	         Ag   B1g   B2g   B3g    Au   B1u   B2u   B3u 
	DOCC [     6,    3,    1,    1,    0,    1,    5,    4 ]

  Energy converged.

  @DF-RHF Final Energy:  -222.85921498318669

   => Energetics <=

    Nuclear Repulsion Energy =            294.0014238158139506
    One-Electron Energy =                -872.0715795007913584
    Two-Electron Energy =                 355.2109407017907188
    DFT Exchange-Correlation Energy =       0.0000000000000000
    Empirical Dispersion Energy =           0.0000000000000000
    Total Energy =                       -222.8592149831866891



Properties will be evaluated at   0.000000,   0.000000,   0.000000 Bohr
  ==> Properties <==


Properties computed using the SCF density matrix

  Nuclear Dipole Moment: (a.u.)
     X:     0.0000      Y:    -0.0000      Z:     0.0000

  Electronic Dipole Moment: (a.u.)
     X:     0.0000      Y:     0.0000      Z:     0.0000

  Dipole Moment: (a.u.)
     X:     0.0000      Y:    -0.0000      Z:     0.0000     Total:     0.0000

  Dipole Moment: (Debye)
     X:     0.0000      Y:    -0.0000      Z:     0.0000     Total:     0.0000


  Saving occupied orbitals to File 180.

*** tstop() called on QuickSilver.local at Mon Jul  7 15:38:08 2014
Module time:
	user time   =       0.51 seconds =       0.01 minutes
	system time =       0.03 seconds =       0.00 minutes
	total time  =          1 seconds =       0.02 minutes
Total time:
	user time   =       0.51 seconds =       0.01 minutes
	system time =       0.03 seconds =       0.00 minutes
	total time  =          1 seconds =       0.02 minutes

  No DF_BASIS_SCF auxiliary basis selected, defaulting to cc-pvdz-ri


*** tstart() called on QuickSilver.local
*** at Mon Jul  7 15:38:08 2014


         ------------------------------------------------------------
                                   SCF GRAD                          
                          Rob Parrish, Justin Turney,                
                       Andy Simmonett, and Alex Sokolov              
         ------------------------------------------------------------

  ==> Geometry <==

    Molecular point group: d2h
    Full point group: D2h

    Geometry (in Angstrom), charge = 0, multiplicity = 1:

       Center              X                  Y                   Z       
    ------------   -----------------  -----------------  -----------------
           C         -0.000000000000     0.999999999997     0.000000000000
           C         -0.865999999997     0.499999999998     0.000000000000
           C          0.865999999997     0.499999999998     0.000000000000
           C         -0.865999999997    -0.499999999998     0.000000000000
           C          0.865999999997    -0.499999999998     0.000000000000
           C          0.000000000000    -0.999999999997     0.000000000000
           H         -0.000000000000     1.619999999995     0.000000000000
           H         -1.402949999995     0.809999999997     0.000000000000
           H          1.402949999995     0.809999999997     0.000000000000
           H         -1.402949999995    -0.809999999997     0.000000000000
           H          1.402949999995    -0.809999999997     0.000000000000
           H          0.000000000000    -1.619999999995     0.000000000000

  Nuclear repulsion =  294.001423815813951

  ==> Basis Set <==

  Basis Set: STO-3G
    Number of shells: 24
    Number of basis function: 36
    Number of Cartesian functions: 36
    Spherical Harmonics?: true
    Max angular momentum: 1

  ==> DFJKGrad: Density-Fitted SCF Gradients <==

    Gradient:                    1
    J tasked:                  Yes
    K tasked:                  Yes
    wK tasked:                  No
    OpenMP threads:              1
    Integrals threads:           1
    Memory (MB):               178
    Schwarz Cutoff:          0E+00
    Fitting Condition:       1E-12

   => Auxiliary Basis Set <=

  Basis Set: cc-pvdz-ri
    Number of shells: 144
    Number of basis function: 420
    Number of Cartesian functions: 486
    Spherical Harmonics?: true
    Max angular momentum: 3


  -Total Gradient:
     Atom            X                  Y                   Z
    ------   -----------------  -----------------  -----------------
       1       -0.000000000512     0.280436130033    -0.000000000000
       2       -0.242758571916     0.140316476495     0.000000000000
       3        0.242758572441     0.140316478149     0.000000000000
       4       -0.242758572421    -0.140316476293    -0.000000000000
       5        0.242758572857    -0.140316477700    -0.000000000000
       6       -0.000000000684    -0.280436130111     0.000000000000
       7       -0.000000000796    -1.706662183112    -0.000000000000
       8        1.477918083706    -0.853249627388     0.000000000000
       9       -1.477918082924    -0.853249626330     0.000000000000
      10        1.477918083042     0.853249627786    -0.000000000000
      11       -1.477918082149     0.853249626525    -0.000000000000
      12       -0.000000000644     1.706662181947     0.000000000000


*** tstop() called on QuickSilver.local at Mon Jul  7 15:38:09 2014
Module time:
	user time   =       1.34 seconds =       0.02 minutes
	system time =       0.02 seconds =       0.00 minutes
	total time  =          1 seconds =       0.02 minutes
Total time:
	user time   =       1.85 seconds =       0.03 minutes
	system time =       0.05 seconds =       0.00 minutes
	total time  =          2 seconds =       0.03 minutes

			-----------------------------------------
			 OPTKING 2.0: for geometry optimizations 
			  - R.A. King,  Bethel University        
			-----------------------------------------

	Internal coordinates to be generated automatically.
	Detected frag with atoms:  1 2 3 4 5 6 7 8 9 10 11 12
	---Fragment 1 Bond Connectivity---
	 1 : 2 3 4 5 7
	 2 : 1 3 4 6 8
	 3 : 1 2 5 6 9
	 4 : 1 2 5 6 10
	 5 : 1 3 4 6 11
	 6 : 2 3 4 5 12
	 7 : 1
	 8 : 2
	 9 : 3
	 10 : 4
	 11 : 5
	 12 : 6

	Omitting auxiliary bond 1 6 bc of connectivity.
	Omitting auxiliary bond 2 5 bc of connectivity.
	Omitting auxiliary bond 3 4 bc of connectivity.
	---Fragment 1 Geometry and Gradient---
	 C          -0.0000000000        1.8897261329        0.0000000000
	 C          -1.6365028311        0.9448630664        0.0000000000
	 C           1.6365028311        0.9448630664        0.0000000000
	 C          -1.6365028311       -0.9448630664        0.0000000000
	 C           1.6365028311       -0.9448630664        0.0000000000
	 C           0.0000000000       -1.8897261329        0.0000000000
	 H          -0.0000000000        3.0613563353        0.0000000000
	 H          -2.6511912781        1.5306781676        0.0000000000
	 H           2.6511912781        1.5306781676        0.0000000000
	 H          -2.6511912781       -1.5306781676        0.0000000000
	 H           2.6511912781       -1.5306781676        0.0000000000
	 H           0.0000000000       -3.0613563353        0.0000000000
	            -0.0000000005        0.2804361300       -0.0000000000
	            -0.2427585719        0.1403164765        0.0000000000
	             0.2427585724        0.1403164781        0.0000000000
	            -0.2427585724       -0.1403164763       -0.0000000000
	             0.2427585729       -0.1403164777       -0.0000000000
	            -0.0000000007       -0.2804361301        0.0000000000
	            -0.0000000008       -1.7066621831       -0.0000000000
	             1.4779180837       -0.8532496274        0.0000000000
	            -1.4779180829       -0.8532496263        0.0000000000
	             1.4779180830        0.8532496278       -0.0000000000
	            -1.4779180821        0.8532496265       -0.0000000000
	            -0.0000000006        1.7066621819        0.0000000000

	Previous optimization step data not found.  Starting new optimization.

	---Fragment 1 Intrafragment Coordinates---
	 - Coordinate -           - BOHR/RAD -       - ANG/DEG -
	 R(1,2)           =         1.889685	       0.999978
	 R(1,3)           =         1.889685	       0.999978
	 R(1,4)           =         3.273078	       1.732038
	 R(1,5)           =         3.273078	       1.732038
	 R(1,7)           =         1.171630	       0.620000
	 R(2,3)           =         3.273006	       1.732000
	 R(2,4)           =         1.889726	       1.000000
	 R(2,6)           =         3.273078	       1.732038
	 R(2,8)           =         1.171654	       0.620012
	 R(3,5)           =         1.889726	       1.000000
	 R(3,6)           =         3.273078	       1.732038
	 R(3,9)           =         1.171654	       0.620012
	 R(4,5)           =         3.273006	       1.732000
	 R(4,6)           =         1.889685	       0.999978
	 R(4,10)          =         1.171654	       0.620012
	 R(5,6)           =         1.889685	       0.999978
	 R(5,11)          =         1.171654	       0.620012
	 R(6,12)          =         1.171630	       0.620000
	 B(1,2,3)         =         0.523611	      30.000728
	 B(1,2,4)         =         2.094408	     120.000728
	 B(1,2,6)         =         1.570822	      90.001456
	 B(1,2,8)         =         2.094394	     119.999931
	 B(1,3,2)         =         0.523611	      30.000728
	 B(1,3,5)         =         2.094408	     120.000728
	 B(1,3,6)         =         1.570822	      90.001456
	 B(1,3,9)         =         2.094394	     119.999931
	 B(1,4,2)         =         0.523586	      29.999272
	 B(1,4,5)         =         1.047210	      60.000728
	 B(1,4,6)         =         1.570822	      90.001456
	 B(1,4,10)        =         2.617970	     149.998614
	 B(1,5,3)         =         0.523586	      29.999272
	 B(1,5,4)         =         1.047210	      60.000728
	 B(1,5,6)         =         1.570822	      90.001456
	 B(1,5,11)        =         2.617970	     149.998614
	 B(2,1,3)         =         2.094370	     119.998544
	 B(2,1,4)         =         0.523599	      30.000000
	 B(2,1,5)         =         1.570771	      89.998544
	 B(2,1,7)         =         2.094408	     120.000728
	 B(2,3,5)         =         1.570796	      90.000000
	 B(2,3,6)         =         1.047210	      60.000728
	 B(2,3,9)         =         2.618005	     150.000658
	 B(2,4,5)         =         1.570796	      90.000000
	 B(2,4,6)         =         2.094408	     120.000728
	 B(2,4,10)        =         2.094384	     119.999342
	 B(2,6,3)         =         1.047172	      59.998544
	 B(2,6,4)         =         0.523599	      30.000000
	 B(2,6,5)         =         1.570771	      89.998544
	 B(2,6,12)        =         2.618007	     150.000728
	 B(3,1,4)         =         1.570771	      89.998544
	 B(3,1,5)         =         0.523599	      30.000000
	 B(3,1,7)         =         2.094408	     120.000728
	 B(3,2,4)         =         1.570796	      90.000000
	 B(3,2,6)         =         1.047210	      60.000728
	 B(3,2,8)         =         2.618005	     150.000658
	 B(3,5,4)         =         1.570796	      90.000000
	 B(3,5,6)         =         2.094408	     120.000728
	 B(3,5,11)        =         2.094384	     119.999342
	 B(3,6,4)         =         1.570771	      89.998544
	 B(3,6,5)         =         0.523599	      30.000000
	 B(3,6,12)        =         2.618007	     150.000728
	 B(4,1,5)         =         1.047172	      59.998544
	 B(4,1,7)         =         2.618007	     150.000728
	 B(4,2,6)         =         0.523586	      29.999272
	 B(4,2,8)         =         2.094384	     119.999342
	 B(4,5,6)         =         0.523611	      30.000728
	 B(4,5,11)        =         2.618005	     150.000658
	 B(4,6,5)         =         2.094370	     119.998544
	 B(4,6,12)        =         2.094408	     120.000728
	 B(5,1,7)         =         2.618007	     150.000728
	 B(5,3,6)         =         0.523586	      29.999272
	 B(5,3,9)         =         2.094384	     119.999342
	 B(5,4,6)         =         0.523611	      30.000728
	 B(5,4,10)        =         2.618005	     150.000658
	 B(5,6,12)        =         2.094408	     120.000728
	 B(6,2,8)         =         2.617970	     149.998614
	 B(6,3,9)         =         2.617970	     149.998614
	 B(6,4,10)        =         2.094394	     119.999931
	 B(6,5,11)        =         2.094394	     119.999931
	 D(1,2,3,5)       =         3.141593	     180.000000
	 D(1,2,3,6)       =         3.141593	     180.000000
	 D(1,2,3,9)       =         0.000000	       0.000000
	 D(1,2,4,5)       =         0.000000	       0.000000
	 D(1,2,4,6)       =         0.000000	       0.000000
	 D(1,2,4,10)      =         3.141593	     180.000000
	 D(1,2,6,3)       =         0.000000	       0.000000
	 D(1,2,6,4)       =         3.141593	     180.000000
	 D(1,2,6,5)       =         0.000000	       0.000000
	 D(1,2,6,12)      =         3.141593	     180.000000
	 D(1,3,2,4)       =         3.141593	     180.000000
	 D(1,3,2,6)       =         3.141593	     180.000000
	 D(1,3,2,8)       =         0.000000	       0.000000
	 D(1,3,5,4)       =         0.000000	       0.000000
	 D(1,3,5,6)       =         0.000000	       0.000000
	 D(1,3,5,11)      =         3.141593	     180.000000
	 D(1,3,6,2)       =         0.000000	       0.000000
	 D(1,3,6,4)       =         0.000000	       0.000000
	 D(1,3,6,5)       =         3.141593	     180.000000
	 D(1,3,6,12)      =         3.141593	     180.000000
	 D(1,4,2,3)       =         0.000000	       0.000000
	 D(1,4,2,6)       =         0.000000	       0.000000
	 D(1,4,2,8)       =         3.141593	     180.000000
	 D(1,4,5,3)       =         0.000000	       0.000000
	 D(1,4,5,6)       =         3.141593	     180.000000
	 D(1,4,5,11)      =         3.141593	     180.000000
	 D(1,4,6,2)       =         0.000000	       0.000000
	 D(1,4,6,3)       =         0.000000	       0.000000
	 D(1,4,6,5)       =         0.000000	       0.000000
	 D(1,4,6,12)      =         3.141593	     180.000000
	 D(1,5,3,2)       =         0.000000	       0.000000
	 D(1,5,3,6)       =         0.000000	       0.000000
	 D(1,5,3,9)       =         3.141593	     180.000000
	 D(1,5,4,2)       =         0.000000	       0.000000
	 D(1,5,4,6)       =         3.141593	     180.000000
	 D(1,5,4,10)      =         3.141593	     180.000000
	 D(1,5,6,2)       =         0.000000	       0.000000
	 D(1,5,6,3)       =         0.000000	       0.000000
	 D(1,5,6,4)       =         0.000000	       0.000000
	 D(1,5,6,12)      =         3.141593	     180.000000
	 D(2,1,3,5)       =         0.000000	       0.000000
	 D(2,1,3,6)       =         0.000000	       0.000000
	 D(2,1,3,9)       =         3.141593	     180.000000
	 D(2,1,4,5)       =         3.141593	     180.000000
	 D(2,1,4,6)       =         3.141593	     180.000000
	 D(2,1,4,10)      =         0.000000	       0.000000
	 D(2,1,5,3)       =         3.141593	     180.000000
	 D(2,1,5,4)       =         0.000000	       0.000000
	 D(2,1,5,6)       =         0.000000	       0.000000
	 D(2,1,5,11)      =         3.141593	     180.000000
	 D(2,3,1,4)       =         0.000000	       0.000000
	 D(2,3,1,5)       =         0.000000	       0.000000
	 D(2,3,1,7)       =         3.141593	     180.000000
	 D(2,3,5,4)       =         0.000000	       0.000000
	 D(2,3,5,6)       =         0.000000	       0.000000
	 D(2,3,5,11)      =         3.141593	     180.000000
	 D(2,3,6,4)       =         0.000000	       0.000000
	 D(2,3,6,5)       =         3.141593	     180.000000
	 D(2,3,6,12)      =         3.141593	     180.000000
	 D(2,4,1,3)       =         3.141593	     180.000000
	 D(2,4,1,5)       =         3.141593	     180.000000
	 D(2,4,1,7)       =         0.000000	       0.000000
	 D(2,4,5,3)       =         0.000000	       0.000000
	 D(2,4,5,6)       =         3.141593	     180.000000
	 D(2,4,5,11)      =         3.141593	     180.000000
	 D(2,4,6,3)       =         0.000000	       0.000000
	 D(2,4,6,5)       =         0.000000	       0.000000
	 D(2,4,6,12)      =         3.141593	     180.000000
	 D(2,6,3,5)       =         3.141593	     180.000000
	 D(2,6,3,9)       =         3.141593	     180.000000
	 D(2,6,4,5)       =         0.000000	       0.000000
	 D(2,6,4,10)      =         3.141593	     180.000000
	 D(2,6,5,3)       =         0.000000	       0.000000
	 D(2,6,5,4)       =         0.000000	       0.000000
	 D(2,6,5,11)      =         3.141593	     180.000000
	 D(3,1,2,4)       =         0.000000	       0.000000
	 D(3,1,2,6)       =         0.000000	       0.000000
	 D(3,1,2,8)       =         3.141593	     180.000000
	 D(3,1,4,5)       =         0.000000	       0.000000
	 D(3,1,4,6)       =         0.000000	       0.000000
	 D(3,1,4,10)      =         3.141593	     180.000000
	 D(3,1,5,4)       =         3.141593	     180.000000
	 D(3,1,5,6)       =         3.141593	     180.000000
	 D(3,1,5,11)      =         0.000000	       0.000000
	 D(3,2,1,4)       =         0.000000	       0.000000
	 D(3,2,1,5)       =         0.000000	       0.000000
	 D(3,2,1,7)       =         3.141593	     180.000000
	 D(3,2,4,5)       =         0.000000	       0.000000
	 D(3,2,4,6)       =         0.000000	       0.000000
	 D(3,2,4,10)      =         3.141593	     180.000000
	 D(3,2,6,4)       =         3.141593	     180.000000
	 D(3,2,6,5)       =         0.000000	       0.000000
	 D(3,2,6,12)      =         3.141593	     180.000000
	 D(3,5,1,4)       =         3.141593	     180.000000
	 D(3,5,1,7)       =         0.000000	       0.000000
	 D(3,5,4,6)       =         3.141593	     180.000000
	 D(3,5,4,10)      =         3.141593	     180.000000
	 D(3,5,6,4)       =         0.000000	       0.000000
	 D(3,5,6,12)      =         3.141593	     180.000000
	 D(3,6,2,4)       =         3.141593	     180.000000
	 D(3,6,2,8)       =         3.141593	     180.000000
	 D(3,6,4,5)       =         0.000000	       0.000000
	 D(3,6,4,10)      =         3.141593	     180.000000
	 D(3,6,5,4)       =         0.000000	       0.000000
	 D(3,6,5,11)      =         3.141593	     180.000000
	 D(4,1,2,6)       =         0.000000	       0.000000
	 D(4,1,2,8)       =         3.141593	     180.000000
	 D(4,1,3,5)       =         0.000000	       0.000000
	 D(4,1,3,6)       =         0.000000	       0.000000
	 D(4,1,3,9)       =         3.141593	     180.000000
	 D(4,1,5,6)       =         0.000000	       0.000000
	 D(4,1,5,11)      =         3.141593	     180.000000
	 D(4,2,1,5)       =         0.000000	       0.000000
	 D(4,2,1,7)       =         3.141593	     180.000000
	 D(4,2,3,5)       =         0.000000	       0.000000
	 D(4,2,3,6)       =         0.000000	       0.000000
	 D(4,2,3,9)       =         3.141593	     180.000000
	 D(4,2,6,5)       =         3.141593	     180.000000
	 D(4,2,6,12)      =         0.000000	       0.000000
	 D(4,5,1,7)       =         3.141593	     180.000000
	 D(4,5,3,6)       =         0.000000	       0.000000
	 D(4,5,3,9)       =         3.141593	     180.000000
	 D(4,5,6,12)      =         3.141593	     180.000000
	 D(4,6,2,8)       =         0.000000	       0.000000
	 D(4,6,3,5)       =         3.141593	     180.000000
	 D(4,6,3,9)       =         3.141593	     180.000000
	 D(4,6,5,11)      =         3.141593	     180.000000
	 D(5,1,2,6)       =         0.000000	       0.000000
	 D(5,1,2,8)       =         3.141593	     180.000000
	 D(5,1,3,6)       =         0.000000	       0.000000
	 D(5,1,3,9)       =         3.141593	     180.000000
	 D(5,1,4,6)       =         0.000000	       0.000000
	 D(5,1,4,10)      =         3.141593	     180.000000
	 D(5,3,1,7)       =         3.141593	     180.000000
	 D(5,3,2,6)       =         0.000000	       0.000000
	 D(5,3,2,8)       =         3.141593	     180.000000
	 D(5,3,6,12)      =         0.000000	       0.000000
	 D(5,4,1,7)       =         3.141593	     180.000000
	 D(5,4,2,6)       =         0.000000	       0.000000
	 D(5,4,2,8)       =         3.141593	     180.000000
	 D(5,4,6,12)      =         3.141593	     180.000000
	 D(5,6,2,8)       =         3.141593	     180.000000
	 D(5,6,3,9)       =         0.000000	       0.000000
	 D(5,6,4,10)      =         3.141593	     180.000000
	 D(6,2,1,7)       =         3.141593	     180.000000
	 D(6,2,3,9)       =         3.141593	     180.000000
	 D(6,2,4,10)      =         3.141593	     180.000000
	 D(6,3,1,7)       =         3.141593	     180.000000
	 D(6,3,2,8)       =         3.141593	     180.000000
	 D(6,3,5,11)      =         3.141593	     180.000000
	 D(6,4,1,7)       =         3.141593	     180.000000
	 D(6,4,2,8)       =         3.141593	     180.000000
	 D(6,4,5,11)      =         0.000000	       0.000000
	 D(6,5,1,7)       =         3.141593	     180.000000
	 D(6,5,3,9)       =         3.141593	     180.000000
	 D(6,5,4,10)      =         0.000000	       0.000000
	 D(7,1,2,8)       =         0.000000	       0.000000
	 D(7,1,3,9)       =         0.000000	       0.000000
	 D(7,1,4,10)      =         0.000000	       0.000000
	 D(7,1,5,11)      =         0.000000	       0.000000
	 D(8,2,3,9)       =         0.000000	       0.000000
	 D(8,2,4,10)      =         0.000000	       0.000000
	 D(8,2,6,12)      =         0.000000	       0.000000
	 D(9,3,5,11)      =         0.000000	       0.000000
	 D(9,3,6,12)      =         0.000000	       0.000000
	 D(10,4,5,11)     =         0.000000	       0.000000
	 D(10,4,6,12)     =         0.000000	       0.000000
	 D(11,5,6,12)     =         0.000000	       0.000000

	Current energy   :      -222.8592149832

	Generating empirical Hessian (Schlegel '84) for each fragment.
	Going to follow RFO solution 1.

	Determining step-restricting scale parameter for RS-RFO.
	Maximum step size allowed    0.40000

	 Iter      |step|      alpha 
	-------------------------------
	    0     0.75644     1.00000
	    1     0.54929     2.25152
	    2     0.44385     3.74142
	    3     0.40583     4.60467
	    4     0.40013     4.75689
	    5     0.40000     4.76040
	-------------------------------
	Projected energy change by RFO approximation:        -1.5573974199

	Back-transformation to cartesian coordinates...
	Successfully converged to displaced geometry.

	--- Internal Coordinate Step in ANG or DEG, aJ/ANG or AJ/DEG ---
	 ---------------------------------------------------------------------------
	   Coordinate                Previous        Force       Change         New 
	   ----------                --------       ------       ------       ------
	    1 R(1,2)          =      0.999978     2.937755     0.019745     1.019724
	    2 R(1,3)          =      0.999978     2.937755     0.019745     1.019724
	    3 R(1,4)          =      1.732038     5.087671     0.034196     1.766235
	    4 R(1,5)          =      1.732038     5.087671     0.034196     1.766235
	    5 R(1,7)          =      0.620000    14.060714     0.076867     0.696867
	    6 R(2,3)          =      1.732000     5.088147     0.034199     1.766199
	    7 R(2,4)          =      1.000000     2.936871     0.019741     1.019741
	    8 R(2,6)          =      1.732038     5.087671     0.034196     1.766235
	    9 R(2,8)          =      0.620012    14.059702     0.076863     0.696876
	   10 R(3,5)          =      1.000000     2.936871     0.019741     1.019741
	   11 R(3,6)          =      1.732038     5.087671     0.034196     1.766235
	   12 R(3,9)          =      0.620012    14.059702     0.076863     0.696876
	   13 R(4,5)          =      1.732000     5.088147     0.034199     1.766199
	   14 R(4,6)          =      0.999978     2.937755     0.019745     1.019724
	   15 R(4,10)         =      0.620012    14.059702     0.076863     0.696876
	   16 R(5,6)          =      0.999978     2.937755     0.019745     1.019724
	   17 R(5,11)         =      0.620012    14.059702     0.076863     0.696876
	   18 R(6,12)         =      0.620000    14.060714     0.076867     0.696867
	   19 B(1,2,3)        =     30.000728     0.000001     0.000044    30.000772
	   20 B(1,2,4)        =    120.000728     0.000001     0.000044   120.000772
	   21 B(1,2,6)        =     90.001456    -0.000000    -0.000019    90.001437
	   22 B(1,2,8)        =    119.999931    -0.000000    -0.000010   119.999920
	   23 B(1,3,2)        =     30.000728     0.000001     0.000044    30.000772
	   24 B(1,3,5)        =    120.000728     0.000001     0.000044   120.000772
	   25 B(1,3,6)        =     90.001456    -0.000000    -0.000019    90.001437
	   26 B(1,3,9)        =    119.999931    -0.000000    -0.000010   119.999920
	   27 B(1,4,2)        =     29.999272     0.000001     0.000063    29.999335
	   28 B(1,4,5)        =     60.000728    -0.000001    -0.000063    60.000665
	   29 B(1,4,6)        =     90.001456    -0.000000    -0.000019    90.001437
	   30 B(1,4,10)       =    149.998614     0.000000     0.000029   149.998643
	   31 B(1,5,3)        =     29.999272     0.000001     0.000063    29.999335
	   32 B(1,5,4)        =     60.000728    -0.000001    -0.000063    60.000665
	   33 B(1,5,6)        =     90.001456    -0.000000    -0.000019    90.001437
	   34 B(1,5,11)       =    149.998614     0.000000     0.000029   149.998643
	   35 B(2,1,3)        =    119.998544    -0.000002    -0.000088   119.998456
	   36 B(2,1,4)        =     30.000000    -0.000002    -0.000107    29.999893
	   37 B(2,1,5)        =     89.998544     0.000000     0.000019    89.998563
	   38 B(2,1,7)        =    120.000728     0.000001     0.000044   120.000772
	   39 B(2,3,5)        =     90.000000     0.000000     0.000000    90.000000
	   40 B(2,3,6)        =     60.000728    -0.000001    -0.000063    60.000665
	   41 B(2,3,9)        =    150.000658     0.000001     0.000034   150.000692
	   42 B(2,4,5)        =     90.000000    -0.000000    -0.000000    90.000000
	   43 B(2,4,6)        =    120.000728     0.000001     0.000044   120.000772
	   44 B(2,4,10)       =    119.999342    -0.000001    -0.000034   119.999308
	   45 B(2,6,3)        =     59.998544     0.000002     0.000126    59.998671
	   46 B(2,6,4)        =     30.000000    -0.000002    -0.000107    29.999893
	   47 B(2,6,5)        =     89.998544     0.000000     0.000019    89.998563
	   48 B(2,6,12)       =    150.000728    -0.000001    -0.000063   150.000665
	   49 B(3,1,4)        =     89.998544     0.000000     0.000019    89.998563
	   50 B(3,1,5)        =     30.000000    -0.000002    -0.000107    29.999893
	   51 B(3,1,7)        =    120.000728     0.000001     0.000044   120.000772
	   52 B(3,2,4)        =     90.000000    -0.000000    -0.000000    90.000000
	   53 B(3,2,6)        =     60.000728    -0.000001    -0.000063    60.000665
	   54 B(3,2,8)        =    150.000658     0.000001     0.000034   150.000692
	   55 B(3,5,4)        =     90.000000     0.000000     0.000000    90.000000
	   56 B(3,5,6)        =    120.000728     0.000001     0.000044   120.000772
	   57 B(3,5,11)       =    119.999342    -0.000001    -0.000034   119.999308
	   58 B(3,6,4)        =     89.998544     0.000000     0.000019    89.998563
	   59 B(3,6,5)        =     30.000000    -0.000002    -0.000107    29.999893
	   60 B(3,6,12)       =    150.000728    -0.000001    -0.000063   150.000665
	   61 B(4,1,5)        =     59.998544     0.000002     0.000126    59.998671
	   62 B(4,1,7)        =    150.000728    -0.000001    -0.000063   150.000665
	   63 B(4,2,6)        =     29.999272     0.000001     0.000063    29.999335
	   64 B(4,2,8)        =    119.999342    -0.000001    -0.000034   119.999308
	   65 B(4,5,6)        =     30.000728     0.000001     0.000044    30.000772
	   66 B(4,5,11)       =    150.000658     0.000001     0.000034   150.000692
	   67 B(4,6,5)        =    119.998544    -0.000002    -0.000088   119.998456
	   68 B(4,6,12)       =    120.000728     0.000001     0.000044   120.000772
	   69 B(5,1,7)        =    150.000728    -0.000001    -0.000063   150.000665
	   70 B(5,3,6)        =     29.999272     0.000001     0.000063    29.999335
	   71 B(5,3,9)        =    119.999342    -0.000001    -0.000034   119.999308
	   72 B(5,4,6)        =     30.000728     0.000001     0.000044    30.000772
	   73 B(5,4,10)       =    150.000658     0.000001     0.000034   150.000692
	   74 B(5,6,12)       =    120.000728     0.000001     0.000044   120.000772
	   75 B(6,2,8)        =    149.998614     0.000000     0.000029   149.998643
	   76 B(6,3,9)        =    149.998614     0.000000     0.000029   149.998643
	   77 B(6,4,10)       =    119.999931    -0.000000    -0.000010   119.999920
	   78 B(6,5,11)       =    119.999931    -0.000000    -0.000010   119.999920
	   79 D(1,2,3,5)      =    180.000000    -0.000000     0.000000   180.000000
	   80 D(1,2,3,6)      =    180.000000    -0.000000     0.000000   180.000000
	   81 D(1,2,3,9)      =      0.000000    -0.000000    -0.000000    -0.000000
	   82 D(1,2,4,5)      =      0.000000    -0.000000    -0.000000    -0.000000
	   83 D(1,2,4,6)      =      0.000000    -0.000000    -0.000000    -0.000000
	   84 D(1,2,4,10)     =    180.000000    -0.000000     0.000000   180.000000
	   85 D(1,2,6,3)      =      0.000000    -0.000000    -0.000000    -0.000000
	   86 D(1,2,6,4)      =    180.000000    -0.000000     0.000000   180.000000
	   87 D(1,2,6,5)      =      0.000000     0.000000     0.000000     0.000000
	   88 D(1,2,6,12)     =    180.000000     0.000000     0.000000   180.000000
	   89 D(1,3,2,4)      =    180.000000     0.000000     0.000000   180.000000
	   90 D(1,3,2,6)      =    180.000000     0.000000     0.000000   180.000000
	   91 D(1,3,2,8)      =      0.000000     0.000000     0.000000     0.000000
	   92 D(1,3,5,4)      =      0.000000     0.000000     0.000000     0.000000
	   93 D(1,3,5,6)      =      0.000000     0.000000     0.000000     0.000000
	   94 D(1,3,5,11)     =    180.000000     0.000000     0.000000   180.000000
	   95 D(1,3,6,2)      =      0.000000     0.000000     0.000000     0.000000
	   96 D(1,3,6,4)      =      0.000000    -0.000000    -0.000000    -0.000000
	   97 D(1,3,6,5)      =    180.000000     0.000000     0.000000   180.000000
	   98 D(1,3,6,12)     =    180.000000    -0.000000     0.000000   180.000000
	   99 D(1,4,2,3)      =      0.000000     0.000000     0.000000     0.000000
	  100 D(1,4,2,6)      =      0.000000     0.000000     0.000000     0.000000
	  101 D(1,4,2,8)      =    180.000000     0.000000     0.000000   180.000000
	  102 D(1,4,5,3)      =      0.000000    -0.000000    -0.000000    -0.000000
	  103 D(1,4,5,6)      =    180.000000     0.000000     0.000000   180.000000
	  104 D(1,4,5,11)     =    180.000000    -0.000000     0.000000   180.000000
	  105 D(1,4,6,2)      =      0.000000    -0.000000    -0.000000    -0.000000
	  106 D(1,4,6,3)      =      0.000000     0.000000     0.000000     0.000000
	  107 D(1,4,6,5)      =      0.000000     0.000000     0.000000     0.000000
	  108 D(1,4,6,12)     =    180.000000     0.000000     0.000000   180.000000
	  109 D(1,5,3,2)      =      0.000000    -0.000000    -0.000000    -0.000000
	  110 D(1,5,3,6)      =      0.000000    -0.000000    -0.000000    -0.000000
	  111 D(1,5,3,9)      =    180.000000    -0.000000     0.000000   180.000000
	  112 D(1,5,4,2)      =      0.000000     0.000000     0.000000     0.000000
	  113 D(1,5,4,6)      =    180.000000    -0.000000     0.000000   180.000000
	  114 D(1,5,4,10)     =    180.000000     0.000000     0.000000   180.000000
	  115 D(1,5,6,2)      =      0.000000    -0.000000    -0.000000    -0.000000
	  116 D(1,5,6,3)      =      0.000000     0.000000     0.000000     0.000000
	  117 D(1,5,6,4)      =      0.000000    -0.000000    -0.000000    -0.000000
	  118 D(1,5,6,12)     =    180.000000    -0.000000     0.000000   180.000000
	  119 D(2,1,3,5)      =      0.000000    -0.000000    -0.000000    -0.000000
	  120 D(2,1,3,6)      =      0.000000    -0.000000    -0.000000    -0.000000
	  121 D(2,1,3,9)      =    180.000000    -0.000000     0.000000   180.000000
	  122 D(2,1,4,5)      =    180.000000    -0.000000     0.000000   180.000000
	  123 D(2,1,4,6)      =    180.000000    -0.000000     0.000000   180.000000
	  124 D(2,1,4,10)     =      0.000000    -0.000000    -0.000000    -0.000000
	  125 D(2,1,5,3)      =    180.000000    -0.000000     0.000000   180.000000
	  126 D(2,1,5,4)      =      0.000000    -0.000000    -0.000000    -0.000000
	  127 D(2,1,5,6)      =      0.000000     0.000000     0.000000     0.000000
	  128 D(2,1,5,11)     =    180.000000    -0.000000     0.000000   180.000000
	  129 D(2,3,1,4)      =      0.000000     0.000000     0.000000     0.000000
	  130 D(2,3,1,5)      =      0.000000     0.000000     0.000000     0.000000
	  131 D(2,3,1,7)      =    180.000000     0.000000     0.000000   180.000000
	  132 D(2,3,5,4)      =      0.000000    -0.000000    -0.000000    -0.000000
	  133 D(2,3,5,6)      =      0.000000     0.000000     0.000000     0.000000
	  134 D(2,3,5,11)     =    180.000000    -0.000000     0.000000   180.000000
	  135 D(2,3,6,4)      =      0.000000    -0.000000    -0.000000    -0.000000
	  136 D(2,3,6,5)      =    180.000000     0.000000     0.000000   180.000000
	  137 D(2,3,6,12)     =    180.000000    -0.000000     0.000000   180.000000
	  138 D(2,4,1,3)      =    180.000000     0.000000     0.000000   180.000000
	  139 D(2,4,1,5)      =    180.000000     0.000000     0.000000   180.000000
	  140 D(2,4,1,7)      =      0.000000     0.000000     0.000000     0.000000
	  141 D(2,4,5,3)      =      0.000000     0.000000     0.000000     0.000000
	  142 D(2,4,5,6)      =    180.000000     0.000000     0.000000   180.000000
	  143 D(2,4,5,11)     =    180.000000     0.000000     0.000000   180.000000
	  144 D(2,4,6,3)      =      0.000000     0.000000     0.000000     0.000000
	  145 D(2,4,6,5)      =      0.000000     0.000000     0.000000     0.000000
	  146 D(2,4,6,12)     =    180.000000     0.000000     0.000000   180.000000
	  147 D(2,6,3,5)      =    180.000000    -0.000000     0.000000   180.000000
	  148 D(2,6,3,9)      =    180.000000     0.000000     0.000000   180.000000
	  149 D(2,6,4,5)      =      0.000000    -0.000000    -0.000000    -0.000000
	  150 D(2,6,4,10)     =    180.000000    -0.000000     0.000000   180.000000
	  151 D(2,6,5,3)      =      0.000000    -0.000000    -0.000000    -0.000000
	  152 D(2,6,5,4)      =      0.000000     0.000000     0.000000     0.000000
	  153 D(2,6,5,11)     =    180.000000     0.000000     0.000000   180.000000
	  154 D(3,1,2,4)      =      0.000000     0.000000     0.000000     0.000000
	  155 D(3,1,2,6)      =      0.000000     0.000000     0.000000     0.000000
	  156 D(3,1,2,8)      =    180.000000     0.000000     0.000000   180.000000
	  157 D(3,1,4,5)      =      0.000000     0.000000     0.000000     0.000000
	  158 D(3,1,4,6)      =      0.000000    -0.000000    -0.000000    -0.000000
	  159 D(3,1,4,10)     =    180.000000     0.000000     0.000000   180.000000
	  160 D(3,1,5,4)      =    180.000000     0.000000     0.000000   180.000000
	  161 D(3,1,5,6)      =    180.000000     0.000000     0.000000   180.000000
	  162 D(3,1,5,11)     =      0.000000     0.000000     0.000000     0.000000
	  163 D(3,2,1,4)      =      0.000000    -0.000000    -0.000000    -0.000000
	  164 D(3,2,1,5)      =      0.000000    -0.000000    -0.000000    -0.000000
	  165 D(3,2,1,7)      =    180.000000    -0.000000     0.000000   180.000000
	  166 D(3,2,4,5)      =      0.000000    -0.000000    -0.000000    -0.000000
	  167 D(3,2,4,6)      =      0.000000    -0.000000    -0.000000    -0.000000
	  168 D(3,2,4,10)     =    180.000000     0.000000     0.000000   180.000000
	  169 D(3,2,6,4)      =    180.000000    -0.000000     0.000000   180.000000
	  170 D(3,2,6,5)      =      0.000000     0.000000     0.000000     0.000000
	  171 D(3,2,6,12)     =    180.000000     0.000000     0.000000   180.000000
	  172 D(3,5,1,4)      =    180.000000    -0.000000     0.000000   180.000000
	  173 D(3,5,1,7)      =      0.000000    -0.000000    -0.000000    -0.000000
	  174 D(3,5,4,6)      =    180.000000    -0.000000     0.000000   180.000000
	  175 D(3,5,4,10)     =    180.000000    -0.000000     0.000000   180.000000
	  176 D(3,5,6,4)      =      0.000000    -0.000000    -0.000000    -0.000000
	  177 D(3,5,6,12)     =    180.000000    -0.000000     0.000000   180.000000
	  178 D(3,6,2,4)      =    180.000000     0.000000     0.000000   180.000000
	  179 D(3,6,2,8)      =    180.000000    -0.000000     0.000000   180.000000
	  180 D(3,6,4,5)      =      0.000000    -0.000000    -0.000000    -0.000000
	  181 D(3,6,4,10)     =    180.000000    -0.000000     0.000000   180.000000
	  182 D(3,6,5,4)      =      0.000000     0.000000     0.000000     0.000000
	  183 D(3,6,5,11)     =    180.000000     0.000000     0.000000   180.000000
	  184 D(4,1,2,6)      =      0.000000    -0.000000    -0.000000    -0.000000
	  185 D(4,1,2,8)      =    180.000000    -0.000000     0.000000   180.000000
	  186 D(4,1,3,5)      =      0.000000    -0.000000    -0.000000    -0.000000
	  187 D(4,1,3,6)      =      0.000000     0.000000     0.000000     0.000000
	  188 D(4,1,3,9)      =    180.000000    -0.000000     0.000000   180.000000
	  189 D(4,1,5,6)      =      0.000000     0.000000     0.000000     0.000000
	  190 D(4,1,5,11)     =    180.000000     0.000000     0.000000   180.000000
	  191 D(4,2,1,5)      =      0.000000     0.000000     0.000000     0.000000
	  192 D(4,2,1,7)      =    180.000000     0.000000     0.000000   180.000000
	  193 D(4,2,3,5)      =      0.000000     0.000000     0.000000     0.000000
	  194 D(4,2,3,6)      =      0.000000     0.000000     0.000000     0.000000
	  195 D(4,2,3,9)      =    180.000000    -0.000000     0.000000   180.000000
	  196 D(4,2,6,5)      =    180.000000     0.000000     0.000000   180.000000
	  197 D(4,2,6,12)     =      0.000000     0.000000     0.000000     0.000000
	  198 D(4,5,1,7)      =    180.000000    -0.000000     0.000000   180.000000
	  199 D(4,5,3,6)      =      0.000000    -0.000000    -0.000000    -0.000000
	  200 D(4,5,3,9)      =    180.000000     0.000000     0.000000   180.000000
	  201 D(4,5,6,12)     =    180.000000     0.000000     0.000000   180.000000
	  202 D(4,6,2,8)      =      0.000000    -0.000000    -0.000000    -0.000000
	  203 D(4,6,3,5)      =    180.000000    -0.000000     0.000000   180.000000
	  204 D(4,6,3,9)      =    180.000000     0.000000     0.000000   180.000000
	  205 D(4,6,5,11)     =    180.000000    -0.000000     0.000000   180.000000
	  206 D(5,1,2,6)      =      0.000000    -0.000000    -0.000000    -0.000000
	  207 D(5,1,2,8)      =    180.000000     0.000000     0.000000   180.000000
	  208 D(5,1,3,6)      =      0.000000     0.000000     0.000000     0.000000
	  209 D(5,1,3,9)      =    180.000000     0.000000     0.000000   180.000000
	  210 D(5,1,4,6)      =      0.000000    -0.000000    -0.000000    -0.000000
	  211 D(5,1,4,10)     =    180.000000    -0.000000     0.000000   180.000000
	  212 D(5,3,1,7)      =    180.000000    -0.000000     0.000000   180.000000
	  213 D(5,3,2,6)      =      0.000000    -0.000000    -0.000000    -0.000000
	  214 D(5,3,2,8)      =    180.000000     0.000000     0.000000   180.000000
	  215 D(5,3,6,12)     =      0.000000    -0.000000    -0.000000    -0.000000
	  216 D(5,4,1,7)      =    180.000000     0.000000     0.000000   180.000000
	  217 D(5,4,2,6)      =      0.000000     0.000000     0.000000     0.000000
	  218 D(5,4,2,8)      =    180.000000    -0.000000     0.000000   180.000000
	  219 D(5,4,6,12)     =    180.000000    -0.000000     0.000000   180.000000
	  220 D(5,6,2,8)      =    180.000000    -0.000000     0.000000   180.000000
	  221 D(5,6,3,9)      =      0.000000     0.000000     0.000000     0.000000
	  222 D(5,6,4,10)     =    180.000000     0.000000     0.000000   180.000000
	  223 D(6,2,1,7)      =    180.000000    -0.000000     0.000000   180.000000
	  224 D(6,2,3,9)      =    180.000000    -0.000000     0.000000   180.000000
	  225 D(6,2,4,10)     =    180.000000     0.000000     0.000000   180.000000
	  226 D(6,3,1,7)      =    180.000000     0.000000     0.000000   180.000000
	  227 D(6,3,2,8)      =    180.000000     0.000000     0.000000   180.000000
	  228 D(6,3,5,11)     =    180.000000    -0.000000     0.000000   180.000000
	  229 D(6,4,1,7)      =    180.000000    -0.000000     0.000000   180.000000
	  230 D(6,4,2,8)      =    180.000000    -0.000000     0.000000   180.000000
	  231 D(6,4,5,11)     =      0.000000    -0.000000    -0.000000    -0.000000
	  232 D(6,5,1,7)      =    180.000000     0.000000     0.000000   180.000000
	  233 D(6,5,3,9)      =    180.000000     0.000000     0.000000   180.000000
	  234 D(6,5,4,10)     =      0.000000     0.000000     0.000000     0.000000
	  235 D(7,1,2,8)      =      0.000000     0.000000     0.000000     0.000000
	  236 D(7,1,3,9)      =      0.000000    -0.000000    -0.000000    -0.000000
	  237 D(7,1,4,10)     =      0.000000     0.000000     0.000000     0.000000
	  238 D(7,1,5,11)     =      0.000000    -0.000000    -0.000000    -0.000000
	  239 D(8,2,3,9)      =      0.000000    -0.000000    -0.000000    -0.000000
	  240 D(8,2,4,10)     =      0.000000     0.000000     0.000000     0.000000
	  241 D(8,2,6,12)     =      0.000000    -0.000000    -0.000000    -0.000000
	  242 D(9,3,5,11)     =      0.000000     0.000000     0.000000     0.000000
	  243 D(9,3,6,12)     =      0.000000     0.000000     0.000000     0.000000
	  244 D(10,4,5,11)    =      0.000000    -0.000000    -0.000000    -0.000000
	  245 D(10,4,6,12)    =      0.000000    -0.000000    -0.000000    -0.000000
	  246 D(11,5,6,12)    =      0.000000     0.000000     0.000000     0.000000
	 ---------------------------------------------------------------------------

  ==> Convergence Check <==

  Measures of convergence in internal coordinates in au.
  Criteria marked as inactive (o), active & met (*), and active & unmet ( ).
  --------------------------------------------------------------------------------------------- ~
   Step     Total Energy     Delta E     MAX Force     RMS Force      MAX Disp      RMS Disp    ~
  --------------------------------------------------------------------------------------------- ~
    Convergence Criteria    1.00e-08 *    3.00e-04 *             o    1.20e-03 *             o  ~
  --------------------------------------------------------------------------------------------- ~
      1    -222.85921498   -2.23e+02      1.71e+00      2.89e-01 o    1.45e-01      2.55e-02 o  ~
  ---------------------------------------------------------------------------------------------

	Writing optimization data to binary file.
	Structure for next step:
	Cartesian Geometry (in Angstrom)
	    C    -0.0000000000   1.0197440022   0.0000000000
	    C    -0.8830995966   0.5098703488  -0.0000000000
	    C     0.8830995966   0.5098703488   0.0000000000
	    C    -0.8830995966  -0.5098703488   0.0000000000
	    C     0.8830995966  -0.5098703488   0.0000000000
	    C     0.0000000000  -1.0197440022   0.0000000000
	    H    -0.0000000000   1.7166110890   0.0000000000
	    H    -1.4866158272   0.8583008874   0.0000000000
	    H     1.4866158272   0.8583008874   0.0000000000
	    H    -1.4866158272  -0.8583008874   0.0000000000
	    H     1.4866158272  -0.8583008874   0.0000000000
	    H     0.0000000000  -1.7166110890   0.0000000000
			--------------------------
			 OPTKING Finished Execution 
			--------------------------

    Structure for next step:
    Molecular point group: d2h
    Full point group: D2h

    Geometry (in Angstrom), charge = 0, multiplicity = 1:

    C           -0.000000000000     1.019743924331     0.000000000000
    C           -0.883099529170     0.509870309889    -0.000000000000
    C            0.883099529170     0.509870309889     0.000000000000
    C           -0.883099529170    -0.509870309889     0.000000000000
    C            0.883099529170    -0.509870309889    -0.000000000000
    C            0.000000000000    -1.019743924331     0.000000000000
    H           -0.000000000000     1.716610957951     0.000000000000
    H           -1.486615713660     0.858300821859    -0.000000000000
    H            1.486615713660     0.858300821859    -0.000000000000
    H           -1.486615713660    -0.858300821859     0.000000000000
    H            1.486615713660    -0.858300821859    -0.000000000000
    H            0.000000000000    -1.716610957951     0.000000000000


  No DF_BASIS_SCF auxiliary basis selected, defaulting to cc-pvdz-ri


*** tstart() called on QuickSilver.local
*** at Mon Jul  7 15:38:09 2014

	There are an even number of electrons - assuming singlet.
	Specify the multiplicity with the MULTP option in the
	input if this is incorrect


         ---------------------------------------------------------
                                   SCF
            by Justin Turney, Rob Parrish, and Andy Simmonett
                              RHF Reference
                        1 Threads,    250 MiB Core
         ---------------------------------------------------------

  ==> Geometry <==

    Molecular point group: d2h
    Full point group: D2h

    Geometry (in Angstrom), charge = 0, multiplicity = 1:

       Center              X                  Y                   Z       
    ------------   -----------------  -----------------  -----------------
           C         -0.000000000000     1.019743924331     0.000000000000
           C         -0.883099529170     0.509870309889    -0.000000000000
           C          0.883099529170     0.509870309889     0.000000000000
           C         -0.883099529170    -0.509870309889     0.000000000000
           C          0.883099529170    -0.509870309889    -0.000000000000
           C          0.000000000000    -1.019743924331     0.000000000000
           H         -0.000000000000     1.716610957951     0.000000000000
           H         -1.486615713660     0.858300821859    -0.000000000000
           H          1.486615713660     0.858300821859    -0.000000000000
           H         -1.486615713660    -0.858300821859     0.000000000000
           H          1.486615713660    -0.858300821859    -0.000000000000
           H          0.000000000000    -1.716610957951     0.000000000000

  Running in d2h symmetry.


	Rotational constants (cm^-1):
	A =    0.36376    B =    0.36374   C =    0.18188

	Rotational constants (MHz):
	A = 10905.23510    B = 10904.73406   C = 5452.49229
  Nuclear repulsion =  283.894446020740020

  Charge       = 0
  Multiplicity = 1
  Electrons    = 42
  Nalpha       = 21
  Nbeta        = 21

  ==> Algorithm <==

  SCF Algorithm Type is DF.
  DIIS enabled.
  MOM disabled.
  Fractional occupation disabled.
  Guess Type is READ.
  Energy threshold   = 1.00e-08
  Density threshold  = 1.00e-08
  Integral threshold = 0.00e+00

  ==> Primary Basis <==

  Basis Set: STO-3G
    Number of shells: 24
    Number of basis function: 36
    Number of Cartesian functions: 36
    Spherical Harmonics?: true
    Max angular momentum: 1

  ==> Pre-Iterations <==

   -------------------------------------------------------
    Irrep   Nso     Nmo     Nalpha   Nbeta   Ndocc  Nsocc
   -------------------------------------------------------
     Ag         9       9       0       0       0       0
     B1g        6       6       0       0       0       0
     B2g        1       1       0       0       0       0
     B3g        2       2       0       0       0       0
     Au         1       1       0       0       0       0
     B1u        2       2       0       0       0       0
     B2u        9       9       0       0       0       0
     B3u        6       6       0       0       0       0
   -------------------------------------------------------
    Total      36      36      21      21      21       0
   -------------------------------------------------------

 OEINTS: Wrapper to libmints.
   by Justin Turney

   Calculation information:
      Number of atoms:                  12
      Number of AO shells:              24
      Number of SO shells:               8
      Number of primitives:             72
      Number of atomic orbitals:        36
      Number of basis functions:        36

      Number of irreps:                  8
      Number of functions per irrep: [   9    6    1    2    1    2    9    6 ]

      Overlap, kinetic, potential, dipole, and quadrupole integrals
        stored in file 35.

  ==> Integral Setup <==

  ==> DFJK: Density-Fitted J/K Matrices <==

    J tasked:                  Yes
    K tasked:                  Yes
    wK tasked:                  No
    OpenMP threads:              1
    Integrals threads:           1
    Memory (MB):               178
    Algorithm:                Core
    Integral Cache:           NONE
    Schwarz Cutoff:          1E-12
    Fitting Condition:       1E-12

   => Auxiliary Basis Set <=

  Basis Set: cc-pvdz-ri
    Number of shells: 144
    Number of basis function: 420
    Number of Cartesian functions: 486
    Spherical Harmonics?: true
    Max angular momentum: 3

  Minimum eigenvalue in the overlap matrix is 2.6779994307E-02.
  Using Symmetric Orthogonalization.
  SCF Guess: Projection.

  Using orbitals from previous SCF, no projection.
  Recomputing DOCC and SOCC from number of alpha and beta electrons from previous calculation.
	         Ag   B1g   B2g   B3g    Au   B1u   B2u   B3u 
	DOCC [     6,    3,    1,    1,    0,    1,    5,    4 ]

  ==> Iterations <==

                           Total Energy        Delta E     RMS |[F,P]|

   @DF-RHF iter   0:  -224.49172382849230   -2.24492e+02   3.16768e-02 
   @DF-RHF iter   1:  -224.35301813547790    1.38706e-01   3.43590e-03 
   @DF-RHF iter   2:  -224.35431086167381   -1.29273e-03   2.77630e-04 DIIS
   @DF-RHF iter   3:  -224.35431812772924   -7.26606e-06   3.80766e-05 DIIS
   @DF-RHF iter   4:  -224.35431829542290   -1.67694e-07   1.84308e-06 DIIS
   @DF-RHF iter   5:  -224.35431829572099   -2.98087e-10   5.59082e-08 DIIS
   @DF-RHF iter   6:  -224.35431829572138   -3.97904e-13   3.04618e-09 DIIS

  ==> Post-Iterations <==

	Orbital Energies (a.u.)
	-----------------------

	Doubly Occupied:                                                      

	   1Ag   -11.158301     1B2u  -11.153005     1B3u  -11.152998  
	   2Ag   -11.140374     1B1g  -11.140370     2B2u  -11.134372  
	   3Ag    -1.502793     3B2u   -1.207657     2B3u   -1.207643  
	   4Ag    -1.025399     2B1g   -0.998023     5Ag    -0.998021  
	   3B3u   -0.830934     1B1u   -0.796580     4B2u   -0.755062  
	   4B3u   -0.755031     5B2u   -0.705588     6Ag    -0.545966  
	   3B1g   -0.545960     1B3g   -0.497944     1B2g   -0.497927  

	Virtual:                                                              

	   1Au     0.329324     2B1u    0.329330     2B3g    0.803216  
	   7Ag     0.973335     6B2u    1.054940     5B3u    1.054953  
	   4B1g    1.467149     8Ag     1.467205     6B3u    1.585982  
	   7B2u    1.585983     5B1g    1.710278     9Ag     1.710296  
	   8B2u    1.769855     6B1g    1.942623     9B2u    2.387604  

	Final Occupation by Irrep:
	         Ag   B1g   B2g   B3g    Au   B1u   B2u   B3u 
	DOCC [     6,    3,    1,    1,    0,    1,    5,    4 ]

  Energy converged.

  @DF-RHF Final Energy:  -224.35431829572138

   => Energetics <=

    Nuclear Repulsion Energy =            283.8944460207400198
    One-Electron Energy =                -856.9976355349733694
    Two-Electron Energy =                 348.7488712185119653
    DFT Exchange-Correlation Energy =       0.0000000000000000
    Empirical Dispersion Energy =           0.0000000000000000
    Total Energy =                       -224.3543182957213844



Properties will be evaluated at   0.000000,   0.000000,   0.000000 Bohr
  ==> Properties <==


Properties computed using the SCF density matrix

  Nuclear Dipole Moment: (a.u.)
     X:     0.0000      Y:     0.0000      Z:     0.0000

  Electronic Dipole Moment: (a.u.)
     X:     0.0000      Y:     0.0000      Z:     0.0000

  Dipole Moment: (a.u.)
     X:     0.0000      Y:     0.0000      Z:     0.0000     Total:     0.0000

  Dipole Moment: (Debye)
     X:     0.0000      Y:     0.0000      Z:     0.0000     Total:     0.0000


  Saving occupied orbitals to File 180.

*** tstop() called on QuickSilver.local at Mon Jul  7 15:38:10 2014
Module time:
	user time   =       0.50 seconds =       0.01 minutes
	system time =       0.02 seconds =       0.00 minutes
	total time  =          1 seconds =       0.02 minutes
Total time:
	user time   =       2.84 seconds =       0.05 minutes
	system time =       0.10 seconds =       0.00 minutes
	total time  =          3 seconds =       0.05 minutes

  No DF_BASIS_SCF auxiliary basis selected, defaulting to cc-pvdz-ri


*** tstart() called on QuickSilver.local
*** at Mon Jul  7 15:38:10 2014


         ------------------------------------------------------------
                                   SCF GRAD                          
                          Rob Parrish, Justin Turney,                
                       Andy Simmonett, and Alex Sokolov              
         ------------------------------------------------------------

  ==> Geometry <==

    Molecular point group: d2h
    Full point group: D2h

    Geometry (in Angstrom), charge = 0, multiplicity = 1:

       Center              X                  Y                   Z       
    ------------   -----------------  -----------------  -----------------
           C         -0.000000000000     1.019743924331     0.000000000000
           C         -0.883099529170     0.509870309889    -0.000000000000
           C          0.883099529170     0.509870309889     0.000000000000
           C         -0.883099529170    -0.509870309889     0.000000000000
           C          0.883099529170    -0.509870309889    -0.000000000000
           C          0.000000000000    -1.019743924331     0.000000000000
           H         -0.000000000000     1.716610957951     0.000000000000
           H         -1.486615713660     0.858300821859    -0.000000000000
           H          1.486615713660     0.858300821859    -0.000000000000
           H         -1.486615713660    -0.858300821859     0.000000000000
           H          1.486615713660    -0.858300821859    -0.000000000000
           H          0.000000000000    -1.716610957951     0.000000000000

  Nuclear repulsion =  283.894446020740020

  ==> Basis Set <==

  Basis Set: STO-3G
    Number of shells: 24
    Number of basis function: 36
    Number of Cartesian functions: 36
    Spherical Harmonics?: true
    Max angular momentum: 1

  ==> DFJKGrad: Density-Fitted SCF Gradients <==

    Gradient:                    1
    J tasked:                  Yes
    K tasked:                  Yes
    wK tasked:                  No
    OpenMP threads:              1
    Integrals threads:           1
    Memory (MB):               178
    Schwarz Cutoff:          0E+00
    Fitting Condition:       1E-12

   => Auxiliary Basis Set <=

  Basis Set: cc-pvdz-ri
    Number of shells: 144
    Number of basis function: 420
    Number of Cartesian functions: 486
    Spherical Harmonics?: true
    Max angular momentum: 3


  -Total Gradient:
     Atom            X                  Y                   Z
    ------   -----------------  -----------------  -----------------
       1        0.000000000676    -0.199913551860    -0.000000000000
       2        0.173179062759    -0.099868200745     0.000000000000
       3       -0.173179063995    -0.099868202000     0.000000000000
       4        0.173179061876     0.099868200854    -0.000000000000
       5       -0.173179063464     0.099868202402    -0.000000000000
       6        0.000000000569     0.199913550370     0.000000000000
       7        0.000000000372    -1.075864416952    -0.000000000000
       8        0.931685664210    -0.537891701595     0.000000000000
       9       -0.931685663900    -0.537891702217     0.000000000000
      10        0.931685663796     0.537891702155    -0.000000000000
      11       -0.931685663551     0.537891702509    -0.000000000000
      12        0.000000000650     1.075864417078     0.000000000000


*** tstop() called on QuickSilver.local at Mon Jul  7 15:38:11 2014
Module time:
	user time   =       1.35 seconds =       0.02 minutes
	system time =       0.02 seconds =       0.00 minutes
	total time  =          1 seconds =       0.02 minutes
Total time:
	user time   =       4.19 seconds =       0.07 minutes
	system time =       0.12 seconds =       0.00 minutes
	total time  =          4 seconds =       0.07 minutes

			-----------------------------------------
			 OPTKING 2.0: for geometry optimizations 
			  - R.A. King,  Bethel University        
			-----------------------------------------

	Previous internal coordinate definitions found.
	---Fragment 1 Geometry and Gradient---
	 C          -0.0000000000        1.9270367427        0.0000000000
	 C          -1.6688162582        0.9635152490       -0.0000000000
	 C           1.6688162582        0.9635152490        0.0000000000
	 C          -1.6688162582       -0.9635152490        0.0000000000
	 C           1.6688162582       -0.9635152490       -0.0000000000
	 C           0.0000000000       -1.9270367427        0.0000000000
	 H          -0.0000000000        3.2439245872        0.0000000000
	 H          -2.8092965637        1.6219534929       -0.0000000000
	 H           2.8092965637        1.6219534929       -0.0000000000
	 H          -2.8092965637       -1.6219534929        0.0000000000
	 H           2.8092965637       -1.6219534929       -0.0000000000
	 H           0.0000000000       -3.2439245872        0.0000000000
	             0.0000000007       -0.1999135519       -0.0000000000
	             0.1731790628       -0.0998682007        0.0000000000
	            -0.1731790640       -0.0998682020        0.0000000000
	             0.1731790619        0.0998682009       -0.0000000000
	            -0.1731790635        0.0998682024       -0.0000000000
	             0.0000000006        0.1999135504        0.0000000000
	             0.0000000004       -1.0758644170       -0.0000000000
	             0.9316856642       -0.5378917016        0.0000000000
	            -0.9316856639       -0.5378917022        0.0000000000
	             0.9316856638        0.5378917022       -0.0000000000
	            -0.9316856636        0.5378917025       -0.0000000000
	             0.0000000007        1.0758644171        0.0000000000

	---Fragment 1 Intrafragment Coordinates---
	 - Coordinate -           - BOHR/RAD -       - ANG/DEG -
	 R(1,2)           =         1.926998	       1.019724
	 R(1,3)           =         1.926998	       1.019724
	 R(1,4)           =         3.337700	       1.766235
	 R(1,5)           =         3.337700	       1.766235
	 R(1,7)           =         1.316888	       0.696867
	 R(2,3)           =         3.337633	       1.766199
	 R(2,4)           =         1.927030	       1.019741
	 R(2,6)           =         3.337700	       1.766235
	 R(2,8)           =         1.316904	       0.696876
	 R(3,5)           =         1.927030	       1.019741
	 R(3,6)           =         3.337700	       1.766235
	 R(3,9)           =         1.316904	       0.696876
	 R(4,5)           =         3.337633	       1.766199
	 R(4,6)           =         1.926998	       1.019724
	 R(4,10)          =         1.316904	       0.696876
	 R(5,6)           =         1.926998	       1.019724
	 R(5,11)          =         1.316904	       0.696876
	 R(6,12)          =         1.316888	       0.696867
	 B(1,2,3)         =         0.523612	      30.000772
	 B(1,2,4)         =         2.094409	     120.000772
	 B(1,2,6)         =         1.570821	      90.001437
	 B(1,2,8)         =         2.094394	     119.999920
	 B(1,3,2)         =         0.523612	      30.000772
	 B(1,3,5)         =         2.094409	     120.000772
	 B(1,3,6)         =         1.570821	      90.001437
	 B(1,3,9)         =         2.094394	     119.999920
	 B(1,4,2)         =         0.523587	      29.999335
	 B(1,4,5)         =         1.047209	      60.000665
	 B(1,4,6)         =         1.570821	      90.001437
	 B(1,4,10)        =         2.617970	     149.998643
	 B(1,5,3)         =         0.523587	      29.999335
	 B(1,5,4)         =         1.047209	      60.000665
	 B(1,5,6)         =         1.570821	      90.001437
	 B(1,5,11)        =         2.617970	     149.998643
	 B(2,1,3)         =         2.094368	     119.998456
	 B(2,1,4)         =         0.523597	      29.999893
	 B(2,1,5)         =         1.570771	      89.998563
	 B(2,1,7)         =         2.094409	     120.000772
	 B(2,3,5)         =         1.570796	      90.000000
	 B(2,3,6)         =         1.047209	      60.000665
	 B(2,3,9)         =         2.618006	     150.000692
	 B(2,4,5)         =         1.570796	      90.000000
	 B(2,4,6)         =         2.094409	     120.000772
	 B(2,4,10)        =         2.094383	     119.999308
	 B(2,6,3)         =         1.047174	      59.998671
	 B(2,6,4)         =         0.523597	      29.999893
	 B(2,6,5)         =         1.570771	      89.998563
	 B(2,6,12)        =         2.618005	     150.000665
	 B(3,1,4)         =         1.570771	      89.998563
	 B(3,1,5)         =         0.523597	      29.999893
	 B(3,1,7)         =         2.094409	     120.000772
	 B(3,2,4)         =         1.570796	      90.000000
	 B(3,2,6)         =         1.047209	      60.000665
	 B(3,2,8)         =         2.618006	     150.000692
	 B(3,5,4)         =         1.570796	      90.000000
	 B(3,5,6)         =         2.094409	     120.000772
	 B(3,5,11)        =         2.094383	     119.999308
	 B(3,6,4)         =         1.570771	      89.998563
	 B(3,6,5)         =         0.523597	      29.999893
	 B(3,6,12)        =         2.618005	     150.000665
	 B(4,1,5)         =         1.047174	      59.998671
	 B(4,1,7)         =         2.618005	     150.000665
	 B(4,2,6)         =         0.523587	      29.999335
	 B(4,2,8)         =         2.094383	     119.999308
	 B(4,5,6)         =         0.523612	      30.000772
	 B(4,5,11)        =         2.618006	     150.000692
	 B(4,6,5)         =         2.094368	     119.998456
	 B(4,6,12)        =         2.094409	     120.000772
	 B(5,1,7)         =         2.618005	     150.000665
	 B(5,3,6)         =         0.523587	      29.999335
	 B(5,3,9)         =         2.094383	     119.999308
	 B(5,4,6)         =         0.523612	      30.000772
	 B(5,4,10)        =         2.618006	     150.000692
	 B(5,6,12)        =         2.094409	     120.000772
	 B(6,2,8)         =         2.617970	     149.998643
	 B(6,3,9)         =         2.617970	     149.998643
	 B(6,4,10)        =         2.094394	     119.999920
	 B(6,5,11)        =         2.094394	     119.999920
	 D(1,2,3,5)       =        -3.141593	    -180.000000
	 D(1,2,3,6)       =        -3.141593	    -180.000000
	 D(1,2,3,9)       =        -0.000000	      -0.000000
	 D(1,2,4,5)       =        -0.000000	      -0.000000
	 D(1,2,4,6)       =        -0.000000	      -0.000000
	 D(1,2,4,10)      =        -3.141593	    -180.000000
	 D(1,2,6,3)       =         0.000000	       0.000000
	 D(1,2,6,4)       =         3.141593	     180.000000
	 D(1,2,6,5)       =        -0.000000	      -0.000000
	 D(1,2,6,12)      =         3.141593	     180.000000
	 D(1,3,2,4)       =        -3.141593	    -180.000000
	 D(1,3,2,6)       =         3.141593	     180.000000
	 D(1,3,2,8)       =        -0.000000	      -0.000000
	 D(1,3,5,4)       =        -0.000000	      -0.000000
	 D(1,3,5,6)       =        -0.000000	      -0.000000
	 D(1,3,5,11)      =         3.141593	     180.000000
	 D(1,3,6,2)       =        -0.000000	      -0.000000
	 D(1,3,6,4)       =        -0.000000	      -0.000000
	 D(1,3,6,5)       =         3.141593	     180.000000
	 D(1,3,6,12)      =         3.141593	     180.000000
	 D(1,4,2,3)       =         0.000000	       0.000000
	 D(1,4,2,6)       =         0.000000	       0.000000
	 D(1,4,2,8)       =        -3.141593	    -180.000000
	 D(1,4,5,3)       =         0.000000	       0.000000
	 D(1,4,5,6)       =        -3.141593	    -180.000000
	 D(1,4,5,11)      =         3.141593	     180.000000
	 D(1,4,6,2)       =        -0.000000	      -0.000000
	 D(1,4,6,3)       =         0.000000	       0.000000
	 D(1,4,6,5)       =         0.000000	       0.000000
	 D(1,4,6,12)      =        -3.141593	    -180.000000
	 D(1,5,3,2)       =         0.000000	       0.000000
	 D(1,5,3,6)       =         0.000000	       0.000000
	 D(1,5,3,9)       =        -3.141593	    -180.000000
	 D(1,5,4,2)       =         0.000000	       0.000000
	 D(1,5,4,6)       =         3.141593	     180.000000
	 D(1,5,4,10)      =         3.141593	     180.000000
	 D(1,5,6,2)       =         0.000000	       0.000000
	 D(1,5,6,3)       =        -0.000000	      -0.000000
	 D(1,5,6,4)       =        -0.000000	      -0.000000
	 D(1,5,6,12)      =         3.141593	     180.000000
	 D(2,1,3,5)       =         0.000000	       0.000000
	 D(2,1,3,6)       =         0.000000	       0.000000
	 D(2,1,3,9)       =         3.141593	     180.000000
	 D(2,1,4,5)       =         3.141593	     180.000000
	 D(2,1,4,6)       =         3.141593	     180.000000
	 D(2,1,4,10)      =         0.000000	       0.000000
	 D(2,1,5,3)       =        -3.141593	    -180.000000
	 D(2,1,5,4)       =        -0.000000	      -0.000000
	 D(2,1,5,6)       =        -0.000000	      -0.000000
	 D(2,1,5,11)      =        -3.141593	    -180.000000
	 D(2,3,1,4)       =         0.000000	       0.000000
	 D(2,3,1,5)       =        -0.000000	      -0.000000
	 D(2,3,1,7)       =         3.141593	     180.000000
	 D(2,3,5,4)       =        -0.000000	      -0.000000
	 D(2,3,5,6)       =        -0.000000	      -0.000000
	 D(2,3,5,11)      =        -3.141593	    -180.000000
	 D(2,3,6,4)       =        -0.000000	      -0.000000
	 D(2,3,6,5)       =         3.141593	     180.000000
	 D(2,3,6,12)      =        -3.141593	    -180.000000
	 D(2,4,1,3)       =        -3.141593	    -180.000000
	 D(2,4,1,5)       =        -3.141593	    -180.000000
	 D(2,4,1,7)       =         0.000000	       0.000000
	 D(2,4,5,3)       =         0.000000	       0.000000
	 D(2,4,5,6)       =        -3.141593	    -180.000000
	 D(2,4,5,11)      =         3.141593	     180.000000
	 D(2,4,6,3)       =         0.000000	       0.000000
	 D(2,4,6,5)       =         0.000000	       0.000000
	 D(2,4,6,12)      =        -3.141593	    -180.000000
	 D(2,6,3,5)       =        -3.141593	    -180.000000
	 D(2,6,3,9)       =        -3.141593	    -180.000000
	 D(2,6,4,5)       =        -0.000000	      -0.000000
	 D(2,6,4,10)      =         3.141593	     180.000000
	 D(2,6,5,3)       =         0.000000	       0.000000
	 D(2,6,5,4)       =         0.000000	       0.000000
	 D(2,6,5,11)      =         3.141593	     180.000000
	 D(3,1,2,4)       =         0.000000	       0.000000
	 D(3,1,2,6)       =        -0.000000	      -0.000000
	 D(3,1,2,8)       =         3.141593	     180.000000
	 D(3,1,4,5)       =        -0.000000	      -0.000000
	 D(3,1,4,6)       =        -0.000000	      -0.000000
	 D(3,1,4,10)      =        -3.141593	    -180.000000
	 D(3,1,5,4)       =         3.141593	     180.000000
	 D(3,1,5,6)       =         3.141593	     180.000000
	 D(3,1,5,11)      =        -0.000000	      -0.000000
	 D(3,2,1,4)       =        -0.000000	      -0.000000
	 D(3,2,1,5)       =         0.000000	       0.000000
	 D(3,2,1,7)       =        -3.141593	    -180.000000
	 D(3,2,4,5)       =        -0.000000	      -0.000000
	 D(3,2,4,6)       =        -0.000000	      -0.000000
	 D(3,2,4,10)      =        -3.141593	    -180.000000
	 D(3,2,6,4)       =         3.141593	     180.000000
	 D(3,2,6,5)       =        -0.000000	      -0.000000
	 D(3,2,6,12)      =         3.141593	     180.000000
	 D(3,5,1,4)       =        -3.141593	    -180.000000
	 D(3,5,1,7)       =         0.000000	       0.000000
	 D(3,5,4,6)       =        -3.141593	    -180.000000
	 D(3,5,4,10)      =         3.141593	     180.000000
	 D(3,5,6,4)       =         0.000000	       0.000000
	 D(3,5,6,12)      =        -3.141593	    -180.000000
	 D(3,6,2,4)       =        -3.141593	    -180.000000
	 D(3,6,2,8)       =        -3.141593	    -180.000000
	 D(3,6,4,5)       =         0.000000	       0.000000
	 D(3,6,4,10)      =         3.141593	     180.000000
	 D(3,6,5,4)       =        -0.000000	      -0.000000
	 D(3,6,5,11)      =         3.141593	     180.000000
	 D(4,1,2,6)       =        -0.000000	      -0.000000
	 D(4,1,2,8)       =         3.141593	     180.000000
	 D(4,1,3,5)       =         0.000000	       0.000000
	 D(4,1,3,6)       =         0.000000	       0.000000
	 D(4,1,3,9)       =         3.141593	     180.000000
	 D(4,1,5,6)       =         0.000000	       0.000000
	 D(4,1,5,11)      =        -3.141593	    -180.000000
	 D(4,2,1,5)       =         0.000000	       0.000000
	 D(4,2,1,7)       =        -3.141593	    -180.000000
	 D(4,2,3,5)       =         0.000000	       0.000000
	 D(4,2,3,6)       =         0.000000	       0.000000
	 D(4,2,3,9)       =         3.141593	     180.000000
	 D(4,2,6,5)       =        -3.141593	    -180.000000
	 D(4,2,6,12)      =         0.000000	       0.000000
	 D(4,5,1,7)       =         3.141593	     180.000000
	 D(4,5,3,6)       =         0.000000	       0.000000
	 D(4,5,3,9)       =        -3.141593	    -180.000000
	 D(4,5,6,12)      =        -3.141593	    -180.000000
	 D(4,6,2,8)       =        -0.000000	      -0.000000
	 D(4,6,3,5)       =        -3.141593	    -180.000000
	 D(4,6,3,9)       =        -3.141593	    -180.000000
	 D(4,6,5,11)      =         3.141593	     180.000000
	 D(5,1,2,6)       =         0.000000	       0.000000
	 D(5,1,2,8)       =         3.141593	     180.000000
	 D(5,1,3,6)       =        -0.000000	      -0.000000
	 D(5,1,3,9)       =         3.141593	     180.000000
	 D(5,1,4,6)       =        -0.000000	      -0.000000
	 D(5,1,4,10)      =        -3.141593	    -180.000000
	 D(5,3,1,7)       =        -3.141593	    -180.000000
	 D(5,3,2,6)       =         0.000000	       0.000000
	 D(5,3,2,8)       =         3.141593	     180.000000
	 D(5,3,6,12)      =         0.000000	       0.000000
	 D(5,4,1,7)       =        -3.141593	    -180.000000
	 D(5,4,2,6)       =         0.000000	       0.000000
	 D(5,4,2,8)       =        -3.141593	    -180.000000
	 D(5,4,6,12)      =         3.141593	     180.000000
	 D(5,6,2,8)       =        -3.141593	    -180.000000
	 D(5,6,3,9)       =         0.000000	       0.000000
	 D(5,6,4,10)      =         3.141593	     180.000000
	 D(6,2,1,7)       =         3.141593	     180.000000
	 D(6,2,3,9)       =         3.141593	     180.000000
	 D(6,2,4,10)      =        -3.141593	    -180.000000
	 D(6,3,1,7)       =         3.141593	     180.000000
	 D(6,3,2,8)       =         3.141593	     180.000000
[...]
    wK tasked:                  No
    OpenMP threads:              1
    Integrals threads:           1
    Memory (MB):               178
    Algorithm:                Core
    Integral Cache:           NONE
    Schwarz Cutoff:          1E-12
    Fitting Condition:       1E-12

   => Auxiliary Basis Set <=

  Basis Set: cc-pvdz-jkfit
    Number of shells: 198
    Number of basis function: 558
    Number of Cartesian functions: 636
    Spherical Harmonics?: true
    Max angular momentum: 3

  Minimum eigenvalue in the overlap matrix is 3.4496134136E-04.
  Using Symmetric Orthogonalization.
  SCF Guess: Core (One-Electron) Hamiltonian.

  ==> Iterations <==

                           Total Energy        Delta E     RMS |[F,P]|

	Occupation by irrep:
	         Ag   B1g   B2g   B3g    Au   B1u   B2u   B3u 
	DOCC [     7,    4,    0,    0,    0,    0,    6,    3 ]
	SOCC [     0,    0,    0,    0,    0,    0,    1,    1 ]

   @DF-ROHF iter   1:  -194.05173823162087   -1.94052e+02   2.54571e-01 
	Occupation by irrep:
	         Ag   B1g   B2g   B3g    Au   B1u   B2u   B3u 
	DOCC [     6,    3,    0,    1,    0,    1,    5,    4 ]
	SOCC [     1,    0,    1,    0,    0,    0,    0,    0 ]

   @DF-ROHF iter   2:  -189.52442244784473    4.52732e+00   3.39961e-01 DIIS
   @DF-ROHF iter   3:  -227.96982336512136   -3.84454e+01   1.04227e-01 DIIS
   @DF-ROHF iter   4:  -228.56203705058189   -5.92214e-01   9.27113e-02 DIIS
   @DF-ROHF iter   5:  -228.95958088787782   -3.97544e-01   8.24770e-02 DIIS
   @DF-ROHF iter   6:  -229.99817341759271   -1.03859e+00   4.47663e-02 DIIS
   @DF-ROHF iter   7:  -230.36673593744726   -3.68563e-01   1.55776e-02 DIIS
   @DF-ROHF iter   8:  -230.41260594423468   -4.58700e-02   4.48354e-03 DIIS
   @DF-ROHF iter   9:  -230.41650143232286   -3.89549e-03   5.79063e-04 DIIS
   @DF-ROHF iter  10:  -230.41660280554206   -1.01373e-04   6.06148e-05 DIIS
   @DF-ROHF iter  11:  -230.41661129363851   -8.48810e-06   1.76899e-05 DIIS
   @DF-ROHF iter  12:  -230.41661288506114   -1.59142e-06   6.51224e-06 DIIS
   @DF-ROHF iter  13:  -230.41661310308521   -2.18024e-07   1.30736e-06 DIIS
   @DF-ROHF iter  14:  -230.41661310815337   -5.06816e-09   3.36751e-07 DIIS

  ==> Post-Iterations <==

	Orbital Energies (a.u.)
	-----------------------

	Doubly Occupied:                                                      

	   1Ag   -11.307688     1B3u  -11.307675     1B2u  -11.306524  
	   1B1g  -11.306489     2B2u  -11.267439     2Ag   -11.267422  
	   3Ag    -1.211003     2B3u   -1.075048     3B2u   -1.061475  
	   4Ag    -0.873956     2B1g   -0.871217     5Ag    -0.757383  
	   4B2u   -0.676970     3B3u   -0.675776     4B3u   -0.639744  
	   5B2u   -0.620773     3B1g   -0.535996     6Ag    -0.534673  
	   1B1u   -0.528769     1B3g   -0.377570  

	Singly Occupied:                                                      

	   1B2g   -0.254559     7Ag     0.087051  

	Virtual:                                                              

	   1Au     0.103430     2B1u    0.110319     5B3u    0.182066  
	   6B2u    0.193546     4B1g    0.235864     8Ag     0.241630  
	   7B2u    0.263005     2B3g    0.316419     9Ag     0.407706  
	   5B1g    0.409764     8B2u    0.440113     6B3u    0.440654  
	   7B3u    0.549850    10Ag     0.555608     3B1u    0.629883  
	   9B2u    0.642507    11Ag     0.651293     2B2g    0.680671  
	   3B3g    0.691039     8B3u    0.696941    10B2u    0.697871  
	   6B1g    0.703758    12Ag     0.705233     7B1g    0.724602  
	   2Au     0.776740     4B1u    0.786401     9B3u    0.813987  
	  11B2u    0.822412     8B1g    0.847699    13Ag     0.856138  
	   4B3g    0.872879    12B2u    0.950650    14Ag     0.961496  
	   5B1u    0.999132    10B3u    1.071454    13B2u    1.072563  
	   9B1g    1.094064     3B2g    1.100497    10B1g    1.162236  
	  15Ag     1.173475     4B2g    1.196566    11B3u    1.208139  
	   5B3g    1.209518    14B2u    1.214055     6B1u    1.275366  
	   3Au     1.278964    15B2u    1.283464    16Ag     1.422679  
	  11B1g    1.479763    17Ag     1.480734    12B3u    1.678443  
	   4Au     1.701865     7B1u    1.704852     6B3g    1.738054  
	  18Ag     1.770660    19Ag     1.839034    12B1g    1.846405  
	  13B3u    1.857135    16B2u    1.867036     8B1u    1.869239  
	   5B2g    1.911505     7B3g    1.919554    17B2u    1.929292  
	  14B3u    1.935704    18B2u    1.937882     8B3g    2.046116  
	   6B2g    2.053012    15B3u    2.100491    16B3u    2.106756  
	  19B2u    2.108581    13B1g    2.131260    20Ag     2.131517  
	  14B1g    2.143764     5Au     2.223378     9B1u    2.236327  
	  15B1g    2.246704    21Ag     2.258362    20B2u    2.296429  
	   6Au     2.458540     9B3g    2.526127    22Ag     2.679478  
	  16B1g    2.731548    23Ag     2.736347    17B3u    2.758285  
	  21B2u    2.771447    22B2u    2.940316    18B3u    2.944236  
	  23B2u    2.972224    17B1g    3.112877    18B1g    3.251282  
	  24Ag     3.256441    24B2u    4.017996  

	Final Occupation by Irrep:
	         Ag   B1g   B2g   B3g    Au   B1u   B2u   B3u 
	DOCC [     6,    3,    0,    1,    0,    1,    5,    4 ]
	SOCC [     1,    0,    1,    0,    0,    0,    0,    0 ]

  Energy converged.

  @DF-ROHF Final Energy:  -230.41661310815337

   => Energetics <=

    Nuclear Repulsion Energy =            204.5316001721671739
    One-Electron Energy =                -713.0688701209653573
    Two-Electron Energy =                 278.1206568406448127
    DFT Exchange-Correlation Energy =       0.0000000000000000
    Empirical Dispersion Energy =           0.0000000000000000
    Total Energy =                       -230.4166131081533990



Properties will be evaluated at   0.000000,   0.000000,   0.000000 Bohr
  ==> Properties <==


Properties computed using the SCF density matrix

  Nuclear Dipole Moment: (a.u.)
     X:     0.0000      Y:     0.0000      Z:     0.0000

  Electronic Dipole Moment: (a.u.)
     X:     0.0000      Y:     0.0000      Z:     0.0000

  Dipole Moment: (a.u.)
     X:     0.0000      Y:     0.0000      Z:     0.0000     Total:     0.0000

  Dipole Moment: (Debye)
     X:     0.0000      Y:     0.0000      Z:     0.0000     Total:     0.0000


  Saving occupied orbitals to File 180.

*** tstop() called on QuickSilver.local at Mon Jul  7 15:38:47 2014
Module time:
	user time   =       4.66 seconds =       0.08 minutes
	system time =       0.19 seconds =       0.00 minutes
	total time  =          4 seconds =       0.07 minutes
Total time:
	user time   =      41.48 seconds =       0.69 minutes
	system time =       1.06 seconds =       0.02 minutes
	total time  =         40 seconds =       0.67 minutes

  No DF_BASIS_SCF auxiliary basis selected, defaulting to cc-pvdz-jkfit


*** tstart() called on QuickSilver.local
*** at Mon Jul  7 15:38:48 2014


         ---------------------------------------------------------
                                   SCF
            by Justin Turney, Rob Parrish, and Andy Simmonett
                              UHF Reference
                        1 Threads,    250 MiB Core
         ---------------------------------------------------------

  ==> Geometry <==

    Molecular point group: d2h
    Full point group: D2h

    Geometry (in Angstrom), charge = 0, multiplicity = 3:

       Center              X                  Y                   Z       
    ------------   -----------------  -----------------  -----------------
           C         -0.000000000000     1.386806217699     0.000000000000
           C         -1.201009046439     0.693403333623     0.000000000000
           C          1.201009046439     0.693403333623     0.000000000000
           C         -1.201009046439    -0.693403333623     0.000000000000
           C          1.201009046439    -0.693403333623     0.000000000000
           C          0.000000000000    -1.386806217699    -0.000000000000
           H         -0.000000000000     2.469422854699     0.000000000000
           H         -2.138582236268     1.234711194236     0.000000000000
           H          2.138582236268     1.234711194236    -0.000000000000
           H         -2.138582236268    -1.234711194236     0.000000000000
           H          2.138582236268    -1.234711194236     0.000000000000
           H          0.000000000000    -2.469422854699     0.000000000000

  Running in d2h symmetry.


	Rotational constants (cm^-1):
	A =    0.19228    B =    0.19228   C =    0.09614

	Rotational constants (MHz):
	A = 5764.32501    B = 5764.32061   C = 2882.16140
  Nuclear repulsion =  204.531600172167174

  Charge       = 0
  Multiplicity = 3
  Electrons    = 42
  Nalpha       = 22
  Nbeta        = 20

  ==> Algorithm <==

  SCF Algorithm Type is DF.
  DIIS enabled.
  MOM disabled.
  Fractional occupation disabled.
  Guess Type is CORE.
  Energy threshold   = 1.00e-06
  Density threshold  = 1.00e-06
  Integral threshold = 0.00e+00

  ==> Primary Basis <==

  Basis Set: CC-PVDZ
    Number of shells: 54
    Number of basis function: 114
    Number of Cartesian functions: 120
    Spherical Harmonics?: true
    Max angular momentum: 2

  ==> Pre-Iterations <==

   -------------------------------------------------------
    Irrep   Nso     Nmo     Nalpha   Nbeta   Ndocc  Nsocc
   -------------------------------------------------------
     Ag        24      24       0       0       0       0
     B1g       18      18       0       0       0       0
     B2g        6       6       0       0       0       0
     B3g        9       9       0       0       0       0
     Au         6       6       0       0       0       0
     B1u        9       9       0       0       0       0
     B2u       24      24       0       0       0       0
     B3u       18      18       0       0       0       0
   -------------------------------------------------------
    Total     114     114      22      20      20       2
   -------------------------------------------------------

 OEINTS: Wrapper to libmints.
   by Justin Turney

   Calculation information:
      Number of atoms:                  12
      Number of AO shells:              54
      Number of SO shells:              18
      Number of primitives:            162
      Number of atomic orbitals:       120
      Number of basis functions:       114

      Number of irreps:                  8
      Number of functions per irrep: [  24   18    6    9    6    9   24   18 ]

      Overlap, kinetic, potential, dipole, and quadrupole integrals
        stored in file 35.

  ==> Integral Setup <==

  ==> DFJK: Density-Fitted J/K Matrices <==

    J tasked:                  Yes
    K tasked:                  Yes
    wK tasked:                  No
    OpenMP threads:              1
    Integrals threads:           1
    Memory (MB):               178
    Algorithm:                Core
    Integral Cache:           NONE
    Schwarz Cutoff:          1E-12
    Fitting Condition:       1E-12

   => Auxiliary Basis Set <=

  Basis Set: cc-pvdz-jkfit
    Number of shells: 198
    Number of basis function: 558
    Number of Cartesian functions: 636
    Spherical Harmonics?: true
    Max angular momentum: 3

  Minimum eigenvalue in the overlap matrix is 3.4496134136E-04.
  Using Symmetric Orthogonalization.
  SCF Guess: Core (One-Electron) Hamiltonian.

  ==> Iterations <==

                           Total Energy        Delta E     RMS |[F,P]|

	Occupation by irrep:
	         Ag   B1g   B2g   B3g    Au   B1u   B2u   B3u 
	DOCC [     7,    4,    0,    0,    0,    0,    6,    3 ]
	SOCC [     0,    0,    0,    0,    0,    0,    1,    1 ]

   @DF-UHF iter   1:  -194.05173823162087   -1.94052e+02   1.19782e-01 
	Occupation by irrep:
	         Ag   B1g   B2g   B3g    Au   B1u   B2u   B3u 
	DOCC [     6,    3,    0,    1,    0,    1,    5,    4 ]
	SOCC [     0,    0,    1,    0,    0,    1,    0,    0 ]

   @DF-UHF iter   2:  -189.54491893507034    4.50682e+00   1.16081e-01 DIIS
   @DF-UHF iter   3:  -229.89242329875296   -4.03475e+01   2.09965e-02 DIIS
   @DF-UHF iter   4:  -230.49858633992423   -6.06163e-01   5.07757e-03 DIIS
   @DF-UHF iter   5:  -230.53867398013026   -4.00876e-02   7.38687e-04 DIIS
   @DF-UHF iter   6:  -230.53955443659069   -8.80456e-04   3.33089e-04 DIIS
   @DF-UHF iter   7:  -230.53970125338734   -1.46817e-04   1.24759e-04 DIIS
   @DF-UHF iter   8:  -230.53972555311825   -2.42997e-05   3.34304e-05 DIIS
   @DF-UHF iter   9:  -230.53972854547308   -2.99235e-06   1.09607e-05 DIIS
   @DF-UHF iter  10:  -230.53972901727397   -4.71801e-07   3.31319e-06 DIIS
   @DF-UHF iter  11:  -230.53972905480700   -3.75330e-08   6.26485e-07 DIIS

  ==> Post-Iterations <==

   @Spin Contamination Metric:   1.688255322E-02
   @S^2 Expected:                2.000000000E+00
   @S^2 Observed:                2.016882553E+00
   @S   Expected:                1.000000000E+00
   @S   Observed:                1.000000000E+00

	Orbital Energies (a.u.)
	-----------------------

	Alpha Occupied:                                                       

	   1B3u  -11.269388     1Ag   -11.269376     1B2u  -11.268076  
	   1B1g  -11.268059     2Ag   -11.179265     2B2u  -11.179264  
	   3Ag    -1.176430     2B3u   -1.058383     3B2u   -1.016933  
	   4Ag    -0.846254     2B1g   -0.835481     5Ag    -0.714607  
	   4B2u   -0.652961     3B3u   -0.628397     4B3u   -0.608536  
	   5B2u   -0.565976     1B1u   -0.555660     3B1g   -0.497769  
	   6Ag    -0.489883     1B2g   -0.422041     1B3g   -0.388089  
	   2B1u   -0.146908  

	Alpha Virtual:                                                        

	   1Au     0.105803     7Ag     0.178575     5B3u    0.208739  
	   6B2u    0.225857     4B1g    0.247138     8Ag     0.262721  
	   7B2u    0.274422     2B3g    0.283102     9Ag     0.429329  
	   5B1g    0.436060     6B3u    0.469118     8B2u    0.469695  
	   7B3u    0.579526    10Ag     0.585379     3B1u    0.653530  
	   9B2u    0.660433     2B2g    0.692790    11Ag     0.700180  
	   8B3u    0.721708     3B3g    0.723794    12Ag     0.728099  
	   6B1g    0.732109    10B2u    0.737237     7B1g    0.749964  
	   2Au     0.793392     4B1u    0.800427     9B3u    0.842438  
	  11B2u    0.856812     8B1g    0.875140     4B3g    0.885483  
	  13Ag     0.896148    12B2u    0.984561    14Ag     0.996345  
	   5B1u    1.027626    10B3u    1.100165    13B2u    1.110224  
	   3B2g    1.121677     9B1g    1.130412    10B1g    1.190268  
	  15Ag     1.207470     4B2g    1.214341    11B3u    1.237755  
	   5B3g    1.247203    14B2u    1.253750     6B1u    1.297773  
	   3Au     1.307293    15B2u    1.314989    16Ag     1.455607  
	  11B1g    1.510295    17Ag     1.515264    12B3u    1.716952  
	   4Au     1.731589     7B1u    1.737297     6B3g    1.765030  
	  18Ag     1.810034    19Ag     1.864288    12B1g    1.883593  
	  13B3u    1.885860     8B1u    1.895431    16B2u    1.906475  
	   5B2g    1.933311     7B3g    1.959137    17B2u    1.961125  
	  14B3u    1.967327    18B2u    1.967861     8B3g    2.079733  
	   6B2g    2.090262    15B3u    2.130701    16B3u    2.149099  
	  19B2u    2.150761    13B1g    2.171630    20Ag     2.172688  
	  14B1g    2.175897     5Au     2.249542    15B1g    2.269177  
	   9B1u    2.277294    21Ag     2.297609    20B2u    2.327874  
	   6Au     2.499292     9B3g    2.561957    22Ag     2.708158  
	  16B1g    2.767718    23Ag     2.778198    17B3u    2.780706  
	  21B2u    2.814704    22B2u    2.973506    18B3u    2.986320  
	  23B2u    3.010309    17B1g    3.149888    18B1g    3.286616  
	  24Ag     3.302028    24B2u    4.060264  

	Beta Occupied:                                                        

	   1Ag   -11.262519     1B3u  -11.262501     1B2u  -11.261453  
	   1B1g  -11.261427     2B2u  -11.170421     2Ag   -11.170404  
	   3Ag    -1.137549     2B3u   -1.003238     3B2u   -0.989409  
	   2B1g   -0.817719     4Ag    -0.806106     5Ag    -0.705775  
	   4B2u   -0.636836     3B3u   -0.616020     4B3u   -0.599797  
	   5B2u   -0.559299     3B1g   -0.492088     6Ag    -0.481625  
	   1B1u   -0.419773     1B3g   -0.291228  

	Beta Virtual:                                                         

	   1B2g   -0.036971     7Ag     0.181857     1Au     0.183940  
	   2B1u    0.209379     5B3u    0.211841     6B2u    0.228669  
	   4B1g    0.252210     8Ag     0.268836     7B2u    0.279425  
	   2B3g    0.390169     9Ag     0.441041     5B1g    0.445211  
	   8B2u    0.472519     6B3u    0.476763     7B3u    0.584555  
	  10Ag     0.592192     9B2u    0.688335     3B1u    0.697993  
	  11Ag     0.710975     2B2g    0.744631     6B1g    0.748464  
	  10B2u    0.754581     8B3u    0.754731     3B3g    0.756744  
	   7B1g    0.759170    12Ag     0.759929     2Au     0.831956  
	   9B3u    0.850766     4B1u    0.859061    11B2u    0.859400  
	   8B1g    0.879551    13Ag     0.902293     4B3g    0.935927  
	  12B2u    1.000258    14Ag     1.004906     5B1u    1.059177  
	  10B3u    1.112719    13B2u    1.119414     9B1g    1.137020  
	   3B2g    1.176284    10B1g    1.199380    15Ag     1.224565  
	  11B3u    1.246456     4B2g    1.247971    14B2u    1.256283  
	   5B3g    1.273280    15B2u    1.322500     3Au     1.336394  
	   6B1u    1.342495    16Ag     1.476509    11B1g    1.514727  
	  17Ag     1.523987    12B3u    1.723402     4Au     1.752727  
	   7B1u    1.762293     6B3g    1.776792    18Ag     1.823082  
	  19Ag     1.870686    12B1g    1.888245    13B3u    1.898791  
	   8B1u    1.903379    16B2u    1.919187     5B2g    1.949514  
	  17B2u    1.967394     7B3g    1.967832    14B3u    1.972001  
	  18B2u    1.973785     8B3g    2.105082     6B2g    2.120231  
	  15B3u    2.131465    16B3u    2.160784    19B2u    2.162131  
	  13B1g    2.172729    20Ag     2.181335    14B1g    2.181554  
	   5Au     2.261630    15B1g    2.279297     9B1u    2.295911  
	  21Ag     2.310247    20B2u    2.339704     6Au     2.524621  
	   9B3g    2.579770    22Ag     2.711254    16B1g    2.776615  
	  17B3u    2.782999    23Ag     2.787168    21B2u    2.817106  
	  22B2u    2.981563    18B3u    2.994075    23B2u    3.018289  
	  17B1g    3.153278    18B1g    3.289821    24Ag     3.306888  
	  24B2u    4.065480  

	Final Occupation by Irrep:
	         Ag   B1g   B2g   B3g    Au   B1u   B2u   B3u 
	DOCC [     6,    3,    0,    1,    0,    1,    5,    4 ]
	SOCC [     0,    0,    1,    0,    0,    1,    0,    0 ]

  Energy converged.

  @DF-UHF Final Energy:  -230.53972905480700

   => Energetics <=

    Nuclear Repulsion Energy =            204.5316001721671739
    One-Electron Energy =                -715.1596129381288165
    Two-Electron Energy =                 280.0882837111546451
    DFT Exchange-Correlation Energy =       0.0000000000000000
    Empirical Dispersion Energy =           0.0000000000000000
    Total Energy =                       -230.5397290548070259



Properties will be evaluated at   0.000000,   0.000000,   0.000000 Bohr
  ==> Properties <==


Properties computed using the SCF density matrix

  Nuclear Dipole Moment: (a.u.)
     X:     0.0000      Y:     0.0000      Z:     0.0000

  Electronic Dipole Moment: (a.u.)
     X:     0.0000      Y:     0.0000      Z:     0.0000

  Dipole Moment: (a.u.)
     X:     0.0000      Y:     0.0000      Z:     0.0000     Total:     0.0000

  Dipole Moment: (Debye)
     X:     0.0000      Y:     0.0000      Z:     0.0000     Total:     0.0000


  Saving occupied orbitals to File 180.

*** tstop() called on QuickSilver.local at Mon Jul  7 15:38:51 2014
Module time:
	user time   =       4.15 seconds =       0.07 minutes
	system time =       0.15 seconds =       0.00 minutes
	total time  =          3 seconds =       0.05 minutes
Total time:
	user time   =      45.66 seconds =       0.76 minutes
	system time =       1.21 seconds =       0.02 minutes
	total time  =         44 seconds =       0.73 minutes

Singlet-Triplet gap (vertical, UHF)   =     4.96 eV

Singlet-Triplet gap (vertical, ROHF)  =     8.31 eV

*** PSI4 exiting successfully. Buy a developer a beer!
