    -----------------------------------------------------------------------
          Psi4: An Open-Source Ab Initio Electronic Structure Package
                              Psi4 0.5 Driver

                          Git: Rev {master} dbe9080

    J. M. Turney, A. C. Simmonett, R. M. Parrish, E. G. Hohenstein,
    F. A. Evangelista, J. T. Fermann, B. J. Mintz, L. A. Burns, J. J. Wilke,
    M. L. Abrams, N. J. Russ, M. L. Leininger, C. L. Janssen, E. T. Seidl,
    W. D. Allen, H. F. Schaefer, R. A. King, E. F. Valeev, C. D. Sherrill,
    and T. D. Crawford, WIREs Comput. Mol. Sci. 2, 556-565 (2012)
    (doi: 10.1002/wcms.93)

                         Additional Contributions by
    A. E. DePrince, M. Saitow, U. Bozkaya, A. Yu. Sokolov
    -----------------------------------------------------------------------


    Psi4 started on: Mon Mar 14 15:32:55 2016

    Process ID:  13718
    PSI4DATADIR: /home/dsmith/Gits/dgas_psi/share
    Memory level set to 256.000 MB

  ==> Input File <==

--------------------------------------------------------------------------
#! Benzene vertical singlet-triplet energy difference computation, using the
#! PubChem database to obtain the initial geometry, which is optimized at the HF/STO-3G
#! level, before computing single point energies at the RHF, UHF and ROHF levels of theory.

memory 250 mb

molecule benz{
    pubchem:benzene
}

set {
   basis     sto-3g
   reference rhf
   max_energy_g_convergence 8
}

optimize('scf')

set basis cc-pvdz
e_sing_rhf = energy('scf')

benz.set_multiplicity(3)
#
# We could have specified a triplet C6H6 molecule with the following
#
#molecule benz {
#    0 3
#    pubchem:benzene
#}
set reference rohf
e_trip_rohf = energy('scf')
set reference uhf
e_trip_uhf  = energy('scf')

vertical_uhf  = psi_hartree2ev * (e_trip_uhf  - e_sing_rhf)
vertical_rohf = psi_hartree2ev * (e_trip_rohf - e_sing_rhf)
print_out("\nSinglet-Triplet gap (vertical, UHF)   = %8.2f eV\n" % vertical_uhf)
print_out("\nSinglet-Triplet gap (vertical, ROHF)  = %8.2f eV\n" % vertical_rohf)

enuc  =  204.531600152395043                                                         #TEST
erhf  = -230.72190557842444                                                          #TEST
#erohf = -230.4166131085004849                                                        #TEST
#euhf  = -230.5397290551616720                                                        #TEST
compare_values(enuc, benz.nuclear_repulsion_energy(), 3, "Nuclear repulsion energy") #TEST 
compare_values(erhf,  e_sing_rhf,  6, "Singlet benzene RHF energy")                  #TEST 
#compare_values(erohf, e_trip_rohf, 6, "Triplet benzene UHF energy")                  #TEST 
#compare_values(euhf,  e_trip_uhf,  6, "Triplet benzene ROHF energy")                 #TEST 
--------------------------------------------------------------------------

  Memory set to 250.000 MiB by Python script.
gradient() will perform analytic gradient computation.

*** tstart() called on ds1.sherrill.chemistry.gatech.edu
*** at Mon Mar 14 15:33:41 2016


         ---------------------------------------------------------
                                   SCF
            by Justin Turney, Rob Parrish, and Andy Simmonett
                              RHF Reference
                        1 Threads,    250 MiB Core
         ---------------------------------------------------------

  ==> Geometry <==

    Molecular point group: d2h
    Full point group: D2h

    Geometry (in Angstrom), charge = 0, multiplicity = 1:

       Center              X                  Y                   Z               Mass       
    ------------   -----------------  -----------------  -----------------  -----------------
           C         -1.394814023431    -0.000000000000     0.000000000000    12.000000000000
           C         -0.697441089778     1.207970230209     0.000000000000    12.000000000000
           C         -0.697441089778    -1.207970230209     0.000000000000    12.000000000000
           C          0.697441089778     1.207970230209     0.000000000000    12.000000000000
           C          0.697441089778    -1.207970230209     0.000000000000    12.000000000000
           C          1.394814023431     0.000000000000     0.000000000000    12.000000000000
           H         -2.480916576762    -0.000000000000     0.000000000000     1.007825032070
           H         -1.240492371820     2.148551413522     0.000000000000     1.007825032070
           H         -1.240492371820    -2.148551413522     0.000000000000     1.007825032070
           H          1.240492371820     2.148551413522     0.000000000000     1.007825032070
           H          1.240492371820    -2.148551413522     0.000000000000     1.007825032070
           H          2.480916576762     0.000000000000     0.000000000000     1.007825032070

  Running in d2h symmetry.

  Rotational constants: A =      0.19016  B =      0.19016  C =      0.09508 [cm^-1]
  Rotational constants: A =   5700.82365  B =   5700.78320  C =   2850.40171 [MHz]
  Nuclear repulsion =  203.432213319373346

  Charge       = 0
  Multiplicity = 1
  Electrons    = 42
  Nalpha       = 21
  Nbeta        = 21

  ==> Algorithm <==

  SCF Algorithm Type is DF.
  DIIS enabled.
  MOM disabled.
  Fractional occupation disabled.
  Guess Type is CORE.
  Energy threshold   = 1.00e-08
  Density threshold  = 1.00e-08
  Integral threshold = 0.00e+00

  ==> Primary Basis <==

  Basis Set: STO-3G
    Number of shells: 24
    Number of basis function: 36
    Number of Cartesian functions: 36
    Spherical Harmonics?: true
    Max angular momentum: 1

  ==> Pre-Iterations <==

   -------------------------------------------------------
    Irrep   Nso     Nmo     Nalpha   Nbeta   Ndocc  Nsocc
   -------------------------------------------------------
     Ag         9       9       0       0       0       0
     B1g        6       6       0       0       0       0
     B2g        2       2       0       0       0       0
     B3g        1       1       0       0       0       0
     Au         1       1       0       0       0       0
     B1u        2       2       0       0       0       0
     B2u        6       6       0       0       0       0
     B3u        9       9       0       0       0       0
   -------------------------------------------------------
    Total      36      36      21      21      21       0
   -------------------------------------------------------

  ==> Integral Setup <==

  ==> DFJK: Density-Fitted J/K Matrices <==

    J tasked:                  Yes
    K tasked:                  Yes
    wK tasked:                  No
    OpenMP threads:              1
    Integrals threads:           1
    Memory (MB):               178
    Algorithm:                Core
    Integral Cache:           NONE
    Schwarz Cutoff:          1E-12
    Fitting Condition:       1E-12

   => Auxiliary Basis Set <=

  Basis Set: 
    Number of shells: 144
    Number of basis function: 420
    Number of Cartesian functions: 486
    Spherical Harmonics?: true
    Max angular momentum: 3

  Minimum eigenvalue in the overlap matrix is 1.7143177071E-01.
  Using Symmetric Orthogonalization.
  SCF Guess: Core (One-Electron) Hamiltonian.

  ==> Iterations <==

                           Total Energy        Delta E     RMS |[F,P]|

    Occupation by irrep:
             Ag   B1g   B2g   B3g    Au   B1u   B2u   B3u 
    DOCC [     6,    3,    1,    1,    0,    1,    4,    5 ]

   @DF-RHF iter   1:  -207.72356530221086   -2.07724e+02   1.22427e-01 
   @DF-RHF iter   2:  -224.21638263380348   -1.64928e+01   1.28507e-01 DIIS
   @DF-RHF iter   3:  -227.09803530322924   -2.88165e+00   6.58653e-02 DIIS
   @DF-RHF iter   4:  -227.88812141640219   -7.90086e-01   4.78847e-03 DIIS
   @DF-RHF iter   5:  -227.89225456953787   -4.13315e-03   5.09569e-04 DIIS
   @DF-RHF iter   6:  -227.89231044417332   -5.58746e-05   5.65226e-05 DIIS
   @DF-RHF iter   7:  -227.89231113732413   -6.93151e-07   1.13620e-05 DIIS
   @DF-RHF iter   8:  -227.89231115919503   -2.18709e-08   1.62797e-06 DIIS
   @DF-RHF iter   9:  -227.89231115958486   -3.89832e-10   1.63104e-07 DIIS
   @DF-RHF iter  10:  -227.89231115958953   -4.66116e-12   4.87145e-08 DIIS
   @DF-RHF iter  11:  -227.89231115959009   -5.68434e-13   1.19852e-08 DIIS
   @DF-RHF iter  12:  -227.89231115959015   -5.68434e-14   7.72835e-10 DIIS

  ==> Post-Iterations <==

    Orbital Energies (a.u.)
    -----------------------

    Doubly Occupied:                                                      

       1B2u  -11.029460     1B3u  -11.029460     1Ag   -11.029436  
       1B1g  -11.029103     2Ag   -11.029102     2B3u  -11.028957  
       3Ag    -1.089830     3B3u   -0.954491     2B2u   -0.954476  
       2B1g   -0.766492     4Ag    -0.766472     5Ag    -0.661576  
       4B3u   -0.593756     3B2u   -0.553097     5B3u   -0.533692  
       4B2u   -0.533690     1B1u   -0.456050     3B1g   -0.432595  
       6Ag    -0.432562     1B2g   -0.279773     1B3g   -0.279749  

    Virtual:                                                              

       1Au     0.268822     2B1u    0.268855     2B2g    0.503783  
       7Ag     0.577755     6B3u    0.647618     5B2u    0.647652  
       7B3u    0.719449     4B1g    0.733783     8Ag     0.733811  
       5B1g    0.883608     9Ag     0.883633     8B3u    0.896557  
       6B2u    0.896627     6B1g    1.086833     9B3u    1.149987  

    Final Occupation by Irrep:
             Ag   B1g   B2g   B3g    Au   B1u   B2u   B3u 
    DOCC [     6,    3,    1,    1,    0,    1,    4,    5 ]

  Energy converged.

  @DF-RHF Final Energy:  -227.89231115959015

   => Energetics <=

    Nuclear Repulsion Energy =            203.4322133193733464
    One-Electron Energy =                -711.7214123787867948
    Two-Electron Energy =                 280.3968878998232981
    DFT Exchange-Correlation Energy =       0.0000000000000000
    Empirical Dispersion Energy =           0.0000000000000000
    PCM Polarization Energy =               0.0000000000000000
    EFP Energy =                            0.0000000000000000
    Total Energy =                       -227.8923111595901787

    Alert: EFP and PCM quantities not currently incorporated into SCF psivars.

Properties will be evaluated at   0.000000,   0.000000,   0.000000 Bohr
  ==> Properties <==


Properties computed using the SCF density matrix

  Nuclear Dipole Moment: (a.u.)
     X:    -0.0000      Y:    -0.0000      Z:     0.0000

  Electronic Dipole Moment: (a.u.)
     X:     0.0000      Y:     0.0000      Z:     0.0000

  Dipole Moment: (a.u.)
     X:    -0.0000      Y:    -0.0000      Z:     0.0000     Total:     0.0000

  Dipole Moment: (Debye)
     X:    -0.0000      Y:    -0.0000      Z:     0.0000     Total:     0.0000


  Saving occupied orbitals to File 180.

*** tstop() called on ds1.sherrill.chemistry.gatech.edu at Mon Mar 14 15:33:41 2016
Module time:
	user time   =       0.30 seconds =       0.01 minutes
	system time =       0.00 seconds =       0.00 minutes
	total time  =          0 seconds =       0.00 minutes
Total time:
	user time   =       0.30 seconds =       0.01 minutes
	system time =       0.00 seconds =       0.00 minutes
	total time  =          0 seconds =       0.00 minutes

*** tstart() called on ds1.sherrill.chemistry.gatech.edu
*** at Mon Mar 14 15:33:41 2016


         ------------------------------------------------------------
                                   SCF GRAD                          
                          Rob Parrish, Justin Turney,                
                       Andy Simmonett, and Alex Sokolov              
         ------------------------------------------------------------

  ==> Geometry <==

    Molecular point group: d2h
    Full point group: D2h

    Geometry (in Angstrom), charge = 0, multiplicity = 1:

       Center              X                  Y                   Z               Mass       
    ------------   -----------------  -----------------  -----------------  -----------------
           C         -1.394814023431    -0.000000000000     0.000000000000    12.000000000000
           C         -0.697441089778     1.207970230209     0.000000000000    12.000000000000
           C         -0.697441089778    -1.207970230209     0.000000000000    12.000000000000
           C          0.697441089778     1.207970230209     0.000000000000    12.000000000000
           C          0.697441089778    -1.207970230209     0.000000000000    12.000000000000
           C          1.394814023431     0.000000000000     0.000000000000    12.000000000000
           H         -2.480916576762    -0.000000000000     0.000000000000     1.007825032070
           H         -1.240492371820     2.148551413522     0.000000000000     1.007825032070
           H         -1.240492371820    -2.148551413522     0.000000000000     1.007825032070
           H          1.240492371820     2.148551413522     0.000000000000     1.007825032070
           H          1.240492371820    -2.148551413522     0.000000000000     1.007825032070
           H          2.480916576762     0.000000000000     0.000000000000     1.007825032070

  Nuclear repulsion =  203.432213319373346

  ==> Basis Set <==

  Basis Set: STO-3G
    Number of shells: 24
    Number of basis function: 36
    Number of Cartesian functions: 36
    Spherical Harmonics?: true
    Max angular momentum: 1

  ==> DFJKGrad: Density-Fitted SCF Gradients <==

    Gradient:                    1
    J tasked:                  Yes
    K tasked:                  Yes
    wK tasked:                  No
    OpenMP threads:              1
    Integrals threads:           1
    Memory (MB):               178
    Schwarz Cutoff:          0E+00
    Fitting Condition:       1E-12

   => Auxiliary Basis Set <=

  Basis Set: 
    Number of shells: 144
    Number of basis function: 420
    Number of Cartesian functions: 486
    Spherical Harmonics?: true
    Max angular momentum: 3


  -Total Gradient:
     Atom            X                  Y                   Z
    ------   -----------------  -----------------  -----------------
       1       -0.007018038547    -0.000000000000     0.000000000000
       2       -0.003596345501     0.006105132827     0.000000000000
       3       -0.003596345501    -0.006105132827     0.000000000000
       4        0.003596345501     0.006105132827     0.000000000000
       5        0.003596345501    -0.006105132827     0.000000000000
       6        0.007018038547     0.000000000000     0.000000000000
       7       -0.003088566239    -0.000000000000     0.000000000000
       8       -0.001539934464     0.002668912773     0.000000000000
       9       -0.001539934464    -0.002668912773     0.000000000000
      10        0.001539934464     0.002668912773     0.000000000000
      11        0.001539934464    -0.002668912773     0.000000000000
      12        0.003088566239     0.000000000000     0.000000000000


*** tstop() called on ds1.sherrill.chemistry.gatech.edu at Mon Mar 14 15:33:41 2016
Module time:
	user time   =       0.46 seconds =       0.01 minutes
	system time =       0.01 seconds =       0.00 minutes
	total time  =          0 seconds =       0.00 minutes
Total time:
	user time   =       0.76 seconds =       0.01 minutes
	system time =       0.01 seconds =       0.00 minutes
	total time  =          0 seconds =       0.00 minutes

			-----------------------------------------
			 OPTKING 2.0: for geometry optimizations 
			  - R.A. King,  Bethel University        
			-----------------------------------------

	Internal coordinates to be generated automatically.
	Detected frag with atoms:  1 2 3 4 5 6 7 8 9 10 11 12
	---Fragment 1 Bond Connectivity---
	 1 : 2 3 7
	 2 : 1 4 8
	 3 : 1 5 9
	 4 : 2 6 10
	 5 : 3 6 11
	 6 : 4 5 12
	 7 : 1
	 8 : 2
	 9 : 3
	 10 : 4
	 11 : 5
	 12 : 6

	---Fragment 1 Geometry and Gradient---
	 C          -2.6358165106       -0.0000000000        0.0000000000
	 C          -1.3179726535        2.2827329118        0.0000000000
	 C          -1.3179726535       -2.2827329118        0.0000000000
	 C           1.3179726535        2.2827329118        0.0000000000
	 C           1.3179726535       -2.2827329118        0.0000000000
	 C           2.6358165106        0.0000000000        0.0000000000
	 H          -4.6882528886       -0.0000000000        0.0000000000
	 H          -2.3441908527        4.0601737540        0.0000000000
	 H          -2.3441908527       -4.0601737540        0.0000000000
	 H           2.3441908527        4.0601737540        0.0000000000
	 H           2.3441908527       -4.0601737540        0.0000000000
	 H           4.6882528886        0.0000000000        0.0000000000
	            -0.0070180385       -0.0000000000        0.0000000000
	            -0.0035963455        0.0061051328        0.0000000000
	            -0.0035963455       -0.0061051328        0.0000000000
	             0.0035963455        0.0061051328        0.0000000000
	             0.0035963455       -0.0061051328        0.0000000000
	             0.0070180385        0.0000000000        0.0000000000
	            -0.0030885662       -0.0000000000        0.0000000000
	            -0.0015399345        0.0026689128        0.0000000000
	            -0.0015399345       -0.0026689128        0.0000000000
	             0.0015399345        0.0026689128        0.0000000000
	             0.0015399345       -0.0026689128        0.0000000000
	             0.0030885662        0.0000000000        0.0000000000

	Previous optimization step data not found.  Starting new optimization.

	---Fragment 1 Intrafragment Coordinates---
	 - Coordinate -           - BOHR/RAD -       - ANG/DEG -
	 R(1,2)           =         2.635827	       1.394819
	 R(1,3)           =         2.635827	       1.394819
	 R(1,7)           =         2.052436	       1.086103
	 R(2,4)           =         2.635945	       1.394882
	 R(2,8)           =         2.052418	       1.086093
	 R(3,5)           =         2.635945	       1.394882
	 R(3,9)           =         2.052418	       1.086093
	 R(4,6)           =         2.635827	       1.394819
	 R(4,10)          =         2.052418	       1.086093
	 R(5,6)           =         2.635827	       1.394819
	 R(5,11)          =         2.052418	       1.086093
	 R(6,12)          =         2.052436	       1.086103
	 B(1,2,4)         =         2.094365	     119.998257
	 B(1,2,8)         =         2.094420	     120.001447
	 B(1,3,5)         =         2.094365	     119.998257
	 B(1,3,9)         =         2.094420	     120.001447
	 B(2,1,3)         =         2.094456	     120.003487
	 B(2,1,7)         =         2.094365	     119.998257
	 B(2,4,6)         =         2.094365	     119.998257
	 B(2,4,10)        =         2.094400	     120.000296
	 B(3,1,7)         =         2.094365	     119.998257
	 B(3,5,6)         =         2.094365	     119.998257
	 B(3,5,11)        =         2.094400	     120.000296
	 B(4,2,8)         =         2.094400	     120.000296
	 B(4,6,5)         =         2.094456	     120.003487
	 B(4,6,12)        =         2.094365	     119.998257
	 B(5,3,9)         =         2.094400	     120.000296
	 B(5,6,12)        =         2.094365	     119.998257
	 B(6,4,10)        =         2.094420	     120.001447
	 B(6,5,11)        =         2.094420	     120.001447
	 D(1,2,4,6)       =         0.000000	       0.000000
	 D(1,2,4,10)      =         3.141593	     180.000000
	 D(1,3,5,6)       =         0.000000	       0.000000
	 D(1,3,5,11)      =         3.141593	     180.000000
	 D(2,1,3,5)       =         0.000000	       0.000000
	 D(2,1,3,9)       =         3.141593	     180.000000
	 D(2,4,6,5)       =         0.000000	       0.000000
	 D(2,4,6,12)      =         3.141593	     180.000000
	 D(3,1,2,4)       =         0.000000	       0.000000
	 D(3,1,2,8)       =         3.141593	     180.000000
	 D(3,5,6,4)       =         0.000000	       0.000000
	 D(3,5,6,12)      =         3.141593	     180.000000
	 D(4,2,1,7)       =         3.141593	     180.000000
	 D(4,6,5,11)      =         3.141593	     180.000000
	 D(5,3,1,7)       =         3.141593	     180.000000
	 D(5,6,4,10)      =         3.141593	     180.000000
	 D(6,4,2,8)       =         3.141593	     180.000000
	 D(6,5,3,9)       =         3.141593	     180.000000
	 D(7,1,2,8)       =         0.000000	       0.000000
	 D(7,1,3,9)       =         0.000000	       0.000000
	 D(8,2,4,10)      =         0.000000	       0.000000
	 D(9,3,5,11)      =         0.000000	       0.000000
	 D(10,4,6,12)     =         0.000000	       0.000000
	 D(11,5,6,12)     =         0.000000	       0.000000

	Current energy   :      -227.8923111596

	Generating empirical Hessian (Schlegel '84) for each fragment.
	Taking RFO optimization step.
	Going to follow RFO solution 1.
	Using RFO vector 1.
	Norm of target step-size    0.05740
	Projected energy change by RFO approximation:        -0.0014808404

	Back-transformation to cartesian coordinates...
	Successfully converged to displaced geometry.

	--- Internal Coordinate Step in ANG or DEG, aJ/ANG or AJ/DEG ---
	 ---------------------------------------------------------------------------
	   Coordinate                Previous        Force       Change         New 
	   ----------                --------       ------       ------       ------
	    1 R(1,2)          =      1.394819    -0.083419    -0.011488     1.383331
	    2 R(1,3)          =      1.394819    -0.083419    -0.011488     1.383331
	    3 R(1,7)          =      1.086103    -0.025446    -0.004615     1.081488
	    4 R(2,4)          =      1.394882    -0.083949    -0.011564     1.383318
	    5 R(2,8)          =      1.086093    -0.025386    -0.004604     1.081489
	    6 R(3,5)          =      1.394882    -0.083949    -0.011564     1.383318
	    7 R(3,9)          =      1.086093    -0.025386    -0.004604     1.081489
	    8 R(4,6)          =      1.394819    -0.083419    -0.011488     1.383331
	    9 R(4,10)         =      1.086093    -0.025386    -0.004604     1.081489
	   10 R(5,6)          =      1.394819    -0.083419    -0.011488     1.383331
	   11 R(5,11)         =      1.086093    -0.025386    -0.004604     1.081489
	   12 R(6,12)         =      1.086103    -0.025446    -0.004615     1.081488
	   13 B(1,2,4)        =    119.998257     0.000000     0.001530   119.999786
	   14 B(1,2,8)        =    120.001447    -0.000000    -0.001074   120.000373
	   15 B(1,3,5)        =    119.998257     0.000000     0.001530   119.999786
	   16 B(1,3,9)        =    120.001447    -0.000000    -0.001074   120.000373
	   17 B(2,1,3)        =    120.003487    -0.000001    -0.003059   120.000427
	   18 B(2,1,7)        =    119.998257     0.000000     0.001530   119.999786
	   19 B(2,4,6)        =    119.998257     0.000000     0.001530   119.999786
	   20 B(2,4,10)       =    120.000296    -0.000000    -0.000455   119.999841
	   21 B(3,1,7)        =    119.998257     0.000000     0.001530   119.999786
	   22 B(3,5,6)        =    119.998257     0.000000     0.001530   119.999786
	   23 B(3,5,11)       =    120.000296    -0.000000    -0.000455   119.999841
	   24 B(4,2,8)        =    120.000296    -0.000000    -0.000455   119.999841
	   25 B(4,6,5)        =    120.003487    -0.000001    -0.003059   120.000427
	   26 B(4,6,12)       =    119.998257     0.000000     0.001530   119.999786
	   27 B(5,3,9)        =    120.000296    -0.000000    -0.000455   119.999841
	   28 B(5,6,12)       =    119.998257     0.000000     0.001530   119.999786
	   29 B(6,4,10)       =    120.001447    -0.000000    -0.001074   120.000373
	   30 B(6,5,11)       =    120.001447    -0.000000    -0.001074   120.000373
	   31 D(1,2,4,6)      =      0.000000     0.000000     0.000000     0.000000
	   32 D(1,2,4,10)     =    180.000000     0.000000     0.000000   180.000000
	   33 D(1,3,5,6)      =      0.000000     0.000000     0.000000     0.000000
	   34 D(1,3,5,11)     =    180.000000     0.000000     0.000000   180.000000
	   35 D(2,1,3,5)      =      0.000000     0.000000     0.000000     0.000000
	   36 D(2,1,3,9)      =    180.000000     0.000000     0.000000   180.000000
	   37 D(2,4,6,5)      =      0.000000     0.000000     0.000000     0.000000
	   38 D(2,4,6,12)     =    180.000000     0.000000     0.000000   180.000000
	   39 D(3,1,2,4)      =      0.000000     0.000000     0.000000     0.000000
	   40 D(3,1,2,8)      =    180.000000     0.000000     0.000000   180.000000
	   41 D(3,5,6,4)      =      0.000000     0.000000     0.000000     0.000000
	   42 D(3,5,6,12)     =    180.000000     0.000000     0.000000   180.000000
	   43 D(4,2,1,7)      =    180.000000     0.000000     0.000000   180.000000
	   44 D(4,6,5,11)     =    180.000000     0.000000     0.000000   180.000000
	   45 D(5,3,1,7)      =    180.000000     0.000000     0.000000   180.000000
	   46 D(5,6,4,10)     =    180.000000     0.000000     0.000000   180.000000
	   47 D(6,4,2,8)      =    180.000000     0.000000     0.000000   180.000000
	   48 D(6,5,3,9)      =    180.000000     0.000000     0.000000   180.000000
	   49 D(7,1,2,8)      =      0.000000     0.000000     0.000000     0.000000
	   50 D(7,1,3,9)      =      0.000000     0.000000     0.000000     0.000000
	   51 D(8,2,4,10)     =      0.000000     0.000000     0.000000     0.000000
	   52 D(9,3,5,11)     =      0.000000     0.000000     0.000000     0.000000
	   53 D(10,4,6,12)    =      0.000000     0.000000     0.000000     0.000000
	   54 D(11,5,6,12)    =      0.000000     0.000000     0.000000     0.000000
	 ---------------------------------------------------------------------------

  ==> Convergence Check <==

  Measures of convergence in internal coordinates in au.
  Criteria marked as inactive (o), active & met (*), and active & unmet ( ).
  --------------------------------------------------------------------------------------------- ~
   Step     Total Energy     Delta E     MAX Force     RMS Force      MAX Disp      RMS Disp    ~
  --------------------------------------------------------------------------------------------- ~
    Convergence Criteria    1.00e-08 *    3.00e-04 *             o    1.20e-03 *             o  ~
  --------------------------------------------------------------------------------------------- ~
      1    -227.89231116   -2.28e+02      1.02e-02      3.53e-03 o    2.19e-02      7.81e-03 o  ~
  ---------------------------------------------------------------------------------------------

	Writing optimization data to binary file.
	Structure for next step:
	Cartesian Geometry (in Angstrom)
	    C    -1.3833200606  -0.0000000000   0.0000000000
	    C    -0.6916590396   1.1980023420   0.0000000000
	    C    -0.6916590396  -1.1980023420  -0.0000000000
	    C     0.6916590396   1.1980023420   0.0000000000
	    C     0.6916590396  -1.1980023420   0.0000000000
	    C     1.3833200606   0.0000000000   0.0000000000
	    H    -2.4648076918  -0.0000000000   0.0000000000
	    H    -1.2324008885   2.1346007090  -0.0000000000
	    H    -1.2324008885  -2.1346007090   0.0000000000
	    H     1.2324008885   2.1346007090   0.0000000000
	    H     1.2324008885  -2.1346007090  -0.0000000000
	    H     2.4648076918   0.0000000000   0.0000000000
			--------------------------
			 OPTKING Finished Execution 
			--------------------------

    Structure for next step:
    Molecular point group: d2h
    Full point group: D2h

    Geometry (in Angstrom), charge = 0, multiplicity = 1:

    C           -1.383320060555    -0.000000000000     0.000000000000
    C           -0.691659039572     1.198002341966    -0.000000000000
    C           -0.691659039572    -1.198002341966     0.000000000000
    C            0.691659039572     1.198002341966     0.000000000000
    C            0.691659039572    -1.198002341966    -0.000000000000
    C            1.383320060555     0.000000000000     0.000000000000
    H           -2.464807691785    -0.000000000000     0.000000000000
    H           -1.232400888550     2.134600709016     0.000000000000
    H           -1.232400888550    -2.134600709016     0.000000000000
    H            1.232400888550     2.134600709016     0.000000000000
    H            1.232400888550    -2.134600709016     0.000000000000
    H            2.464807691785     0.000000000000     0.000000000000

gradient() will perform analytic gradient computation.

*** tstart() called on ds1.sherrill.chemistry.gatech.edu
*** at Mon Mar 14 15:33:41 2016


         ---------------------------------------------------------
                                   SCF
            by Justin Turney, Rob Parrish, and Andy Simmonett
                              RHF Reference
                        1 Threads,    250 MiB Core
         ---------------------------------------------------------

  ==> Geometry <==

    Molecular point group: d2h
    Full point group: D2h

    Geometry (in Angstrom), charge = 0, multiplicity = 1:

       Center              X                  Y                   Z               Mass       
    ------------   -----------------  -----------------  -----------------  -----------------
           C         -1.383320060555    -0.000000000000     0.000000000000    12.000000000000
           C         -0.691659039572     1.198002341966     0.000000000000    12.000000000000
           C         -0.691659039572    -1.198002341966     0.000000000000    12.000000000000
           C          0.691659039572     1.198002341966    -0.000000000000    12.000000000000
           C          0.691659039572    -1.198002341966     0.000000000000    12.000000000000
           C          1.383320060555     0.000000000000     0.000000000000    12.000000000000
           H         -2.464807691785    -0.000000000000     0.000000000000     1.007825032070
           H         -1.232400888550     2.134600709016     0.000000000000     1.007825032070
           H         -1.232400888550    -2.134600709016     0.000000000000     1.007825032070
           H          1.232400888550     2.134600709016     0.000000000000     1.007825032070
           H          1.232400888550    -2.134600709016     0.000000000000     1.007825032070
           H          2.464807691785     0.000000000000     0.000000000000     1.007825032070

  Running in d2h symmetry.

  Rotational constants: A =      0.19320  B =      0.19319  C =      0.09660 [cm^-1]
  Rotational constants: A =   5791.84275  B =   5791.72790  C =   2895.89266 [MHz]
  Nuclear repulsion =  205.000653881878634

  Charge       = 0
  Multiplicity = 1
  Electrons    = 42
  Nalpha       = 21
  Nbeta        = 21

  ==> Algorithm <==

  SCF Algorithm Type is DF.
  DIIS enabled.
  MOM disabled.
  Fractional occupation disabled.
  Guess Type is READ.
  Energy threshold   = 1.00e-08
  Density threshold  = 1.00e-08
  Integral threshold = 0.00e+00

  ==> Primary Basis <==

  Basis Set: STO-3G
    Number of shells: 24
    Number of basis function: 36
    Number of Cartesian functions: 36
    Spherical Harmonics?: true
    Max angular momentum: 1

  ==> Pre-Iterations <==

   -------------------------------------------------------
    Irrep   Nso     Nmo     Nalpha   Nbeta   Ndocc  Nsocc
   -------------------------------------------------------
     Ag         9       9       0       0       0       0
     B1g        6       6       0       0       0       0
     B2g        2       2       0       0       0       0
     B3g        1       1       0       0       0       0
     Au         1       1       0       0       0       0
     B1u        2       2       0       0       0       0
     B2u        6       6       0       0       0       0
     B3u        9       9       0       0       0       0
   -------------------------------------------------------
    Total      36      36      21      21      21       0
   -------------------------------------------------------

  ==> Integral Setup <==

  ==> DFJK: Density-Fitted J/K Matrices <==

    J tasked:                  Yes
    K tasked:                  Yes
    wK tasked:                  No
    OpenMP threads:              1
    Integrals threads:           1
    Memory (MB):               178
    Algorithm:                Core
    Integral Cache:           NONE
    Schwarz Cutoff:          1E-12
    Fitting Condition:       1E-12

   => Auxiliary Basis Set <=

  Basis Set: 
    Number of shells: 144
    Number of basis function: 420
    Number of Cartesian functions: 486
    Spherical Harmonics?: true
    Max angular momentum: 3

  Minimum eigenvalue in the overlap matrix is 1.6541902224E-01.
  Using Symmetric Orthogonalization.
  SCF Guess: Reading in previously saved MOs, projecting if necessary.

  Using orbitals from previous SCF, no projection.
  Recomputing DOCC and SOCC from number of alpha and beta electrons from previous calculation.
             Ag   B1g   B2g   B3g    Au   B1u   B2u   B3u 
    DOCC [     6,    3,    1,    1,    0,    1,    4,    5 ]

  ==> Iterations <==

                           Total Energy        Delta E     RMS |[F,P]|

   @DF-RHF iter   0:  -227.92826710153133   -2.27928e+02   3.25222e-03 
   @DF-RHF iter   1:  -227.89268760499283    3.55795e-02   5.37456e-04 
   @DF-RHF iter   2:  -227.89274137519988   -5.37702e-05   5.79210e-05 DIIS
   @DF-RHF iter   3:  -227.89274192965382   -5.54454e-07   1.25669e-05 DIIS
   @DF-RHF iter   4:  -227.89274196288471   -3.32309e-08   4.84382e-07 DIIS
   @DF-RHF iter   5:  -227.89274196292956   -4.48495e-11   5.76119e-08 DIIS
   @DF-RHF iter   6:  -227.89274196292996   -3.97904e-13   1.46145e-08 DIIS
   @DF-RHF iter   7:  -227.89274196293013   -1.70530e-13   5.63138e-10 DIIS

  ==> Post-Iterations <==

    Orbital Energies (a.u.)
    -----------------------

    Doubly Occupied:                                                      

       1B2u  -11.029643     1B3u  -11.029642     1Ag   -11.029640  
       1B1g  -11.029221     2Ag   -11.029221     2B3u  -11.029045  
       3Ag    -1.098169     2B2u   -0.959690     3B3u   -0.959684  
       4Ag    -0.769982     2B1g   -0.769978     5Ag    -0.667353  
       4B3u   -0.593458     3B2u   -0.558968     4B2u   -0.537013  
       5B3u   -0.537007     1B1u   -0.462937     6Ag    -0.434196  
       3B1g   -0.434196     1B3g   -0.283836     1B2g   -0.283830  

    Virtual:                                                              

       2B1u    0.271704     1Au     0.271709     2B2g    0.511565  
       7Ag     0.579500     5B2u    0.650632     6B3u    0.650636  
       7B3u    0.732973     8Ag     0.747684     4B1g    0.747696  
       9Ag     0.892924     5B1g    0.892932     6B2u    0.910482  
       8B3u    0.910492     6B1g    1.104920     9B3u    1.170038  

    Final Occupation by Irrep:
             Ag   B1g   B2g   B3g    Au   B1u   B2u   B3u 
    DOCC [     6,    3,    1,    1,    0,    1,    4,    5 ]

  Energy converged.

  @DF-RHF Final Energy:  -227.89274196293013

   => Energetics <=

    Nuclear Repulsion Energy =            205.0006538818786339
    One-Electron Energy =                -714.7333740404894797
    Two-Electron Energy =                 281.8399781956807146
    DFT Exchange-Correlation Energy =       0.0000000000000000
    Empirical Dispersion Energy =           0.0000000000000000
    PCM Polarization Energy =               0.0000000000000000
    EFP Energy =                            0.0000000000000000
    Total Energy =                       -227.8927419629301312

    Alert: EFP and PCM quantities not currently incorporated into SCF psivars.

Properties will be evaluated at   0.000000,   0.000000,   0.000000 Bohr
  ==> Properties <==


Properties computed using the SCF density matrix

  Nuclear Dipole Moment: (a.u.)
     X:    -0.0000      Y:    -0.0000      Z:     0.0000

  Electronic Dipole Moment: (a.u.)
     X:     0.0000      Y:     0.0000      Z:     0.0000

  Dipole Moment: (a.u.)
     X:    -0.0000      Y:    -0.0000      Z:     0.0000     Total:     0.0000

  Dipole Moment: (Debye)
     X:    -0.0000      Y:    -0.0000      Z:     0.0000     Total:     0.0000


  Saving occupied orbitals to File 180.

*** tstop() called on ds1.sherrill.chemistry.gatech.edu at Mon Mar 14 15:33:42 2016
Module time:
	user time   =       0.36 seconds =       0.01 minutes
	system time =       0.01 seconds =       0.00 minutes
	total time  =          1 seconds =       0.02 minutes
Total time:
	user time   =       1.22 seconds =       0.02 minutes
	system time =       0.02 seconds =       0.00 minutes
	total time  =          1 seconds =       0.02 minutes

*** tstart() called on ds1.sherrill.chemistry.gatech.edu
*** at Mon Mar 14 15:33:42 2016


         ------------------------------------------------------------
                                   SCF GRAD                          
                          Rob Parrish, Justin Turney,                
                       Andy Simmonett, and Alex Sokolov              
         ------------------------------------------------------------

  ==> Geometry <==

    Molecular point group: d2h
    Full point group: D2h

    Geometry (in Angstrom), charge = 0, multiplicity = 1:

       Center              X                  Y                   Z               Mass       
    ------------   -----------------  -----------------  -----------------  -----------------
           C         -1.383320060555    -0.000000000000     0.000000000000    12.000000000000
           C         -0.691659039572     1.198002341966     0.000000000000    12.000000000000
           C         -0.691659039572    -1.198002341966     0.000000000000    12.000000000000
           C          0.691659039572     1.198002341966     0.000000000000    12.000000000000
           C          0.691659039572    -1.198002341966     0.000000000000    12.000000000000
           C          1.383320060555     0.000000000000     0.000000000000    12.000000000000
           H         -2.464807691785    -0.000000000000     0.000000000000     1.007825032070
           H         -1.232400888550     2.134600709016     0.000000000000     1.007825032070
           H         -1.232400888550    -2.134600709016     0.000000000000     1.007825032070
           H          1.232400888550     2.134600709016     0.000000000000     1.007825032070
           H          1.232400888550    -2.134600709016     0.000000000000     1.007825032070
           H          2.464807691785     0.000000000000     0.000000000000     1.007825032070

  Nuclear repulsion =  205.000653881878634

  ==> Basis Set <==

  Basis Set: STO-3G
    Number of shells: 24
    Number of basis function: 36
    Number of Cartesian functions: 36
    Spherical Harmonics?: true
    Max angular momentum: 1

  ==> DFJKGrad: Density-Fitted SCF Gradients <==

    Gradient:                    1
    J tasked:                  Yes
    K tasked:                  Yes
    wK tasked:                  No
    OpenMP threads:              1
    Integrals threads:           1
    Memory (MB):               178
    Schwarz Cutoff:          0E+00
    Fitting Condition:       1E-12

   => Auxiliary Basis Set <=

  Basis Set: 
    Number of shells: 144
    Number of basis function: 420
    Number of Cartesian functions: 486
    Spherical Harmonics?: true
    Max angular momentum: 3


  -Total Gradient:
     Atom            X                  Y                   Z
    ------   -----------------  -----------------  -----------------
       1        0.003523002956     0.000000000000     0.000000000000
       2        0.001772813741    -0.003047083212     0.000000000000
       3        0.001772813741     0.003047083212     0.000000000000
       4       -0.001772813741    -0.003047083212     0.000000000000
       5       -0.001772813741     0.003047083212     0.000000000000
       6       -0.003523002956    -0.000000000000     0.000000000000
       7        0.001000673314     0.000000000000     0.000000000000
       8        0.000500783093    -0.000864630188     0.000000000000
       9        0.000500783093     0.000864630188     0.000000000000
      10       -0.000500783093    -0.000864630188     0.000000000000
      11       -0.000500783093     0.000864630188     0.000000000000
      12       -0.001000673314    -0.000000000000     0.000000000000


*** tstop() called on ds1.sherrill.chemistry.gatech.edu at Mon Mar 14 15:33:42 2016
Module time:
	user time   =       0.47 seconds =       0.01 minutes
	system time =       0.00 seconds =       0.00 minutes
	total time  =          0 seconds =       0.00 minutes
Total time:
	user time   =       1.69 seconds =       0.03 minutes
	system time =       0.02 seconds =       0.00 minutes
	total time  =          1 seconds =       0.02 minutes

			-----------------------------------------
			 OPTKING 2.0: for geometry optimizations 
			  - R.A. King,  Bethel University        
			-----------------------------------------

	Previous internal coordinate definitions found.
	---Fragment 1 Geometry and Gradient---
	 C          -2.6140960686       -0.0000000000        0.0000000000
	 C          -1.3070461621        2.2638963329        0.0000000000
	 C          -1.3070461621       -2.2638963329       -0.0000000000
	 C           1.3070461621        2.2638963329       -0.0000000000
	 C           1.3070461621       -2.2638963329        0.0000000000
	 C           2.6140960686        0.0000000000        0.0000000000
	 H          -4.6578115077       -0.0000000000        0.0000000000
	 H          -2.3289001653        4.0338107431        0.0000000000
	 H          -2.3289001653       -4.0338107431        0.0000000000
	 H           2.3289001653        4.0338107431        0.0000000000
	 H           2.3289001653       -4.0338107431        0.0000000000
	 H           4.6578115077        0.0000000000        0.0000000000
	             0.0035230030        0.0000000000        0.0000000000
	             0.0017728137       -0.0030470832        0.0000000000
	             0.0017728137        0.0030470832        0.0000000000
	            -0.0017728137       -0.0030470832        0.0000000000
	            -0.0017728137        0.0030470832        0.0000000000
	            -0.0035230030       -0.0000000000        0.0000000000
	             0.0010006733        0.0000000000        0.0000000000
	             0.0005007831       -0.0008646302        0.0000000000
	             0.0005007831        0.0008646302        0.0000000000
	            -0.0005007831       -0.0008646302        0.0000000000
	            -0.0005007831        0.0008646302        0.0000000000
	            -0.0010006733       -0.0000000000        0.0000000000

	---Fragment 1 Intrafragment Coordinates---
	 - Coordinate -           - BOHR/RAD -       - ANG/DEG -
	 R(1,2)           =         2.614117	       1.383331
	 R(1,3)           =         2.614117	       1.383331
	 R(1,7)           =         2.043715	       1.081488
	 R(2,4)           =         2.614092	       1.383318
	 R(2,8)           =         2.043718	       1.081489
	 R(3,5)           =         2.614092	       1.383318
	 R(3,9)           =         2.043718	       1.081489
	 R(4,6)           =         2.614117	       1.383331
	 R(4,10)          =         2.043718	       1.081489
	 R(5,6)           =         2.614117	       1.383331
	 R(5,11)          =         2.043718	       1.081489
	 R(6,12)          =         2.043715	       1.081488
	 B(1,2,4)         =         2.094391	     119.999786
	 B(1,2,8)         =         2.094402	     120.000373
	 B(1,3,5)         =         2.094391	     119.999786
	 B(1,3,9)         =         2.094402	     120.000373
	 B(2,1,3)         =         2.094403	     120.000427
	 B(2,1,7)         =         2.094391	     119.999786
	 B(2,4,6)         =         2.094391	     119.999786
	 B(2,4,10)        =         2.094392	     119.999841
	 B(3,1,7)         =         2.094391	     119.999786
	 B(3,5,6)         =         2.094391	     119.999786
	 B(3,5,11)        =         2.094392	     119.999841
	 B(4,2,8)         =         2.094392	     119.999841
	 B(4,6,5)         =         2.094403	     120.000427
	 B(4,6,12)        =         2.094391	     119.999786
	 B(5,3,9)         =         2.094392	     119.999841
	 B(5,6,12)        =         2.094391	     119.999786
	 B(6,4,10)        =         2.094402	     120.000373
	 B(6,5,11)        =         2.094402	     120.000373
	 D(1,2,4,6)       =        -0.000000	      -0.000000
	 D(1,2,4,10)      =         3.141593	     180.000000
	 D(1,3,5,6)       =        -0.000000	      -0.000000
	 D(1,3,5,11)      =         3.141593	     180.000000
	 D(2,1,3,5)       =         0.000000	       0.000000
	 D(2,1,3,9)       =         3.141593	     180.000000
	 D(2,4,6,5)       =         0.000000	       0.000000
	 D(2,4,6,12)      =         3.141593	     180.000000
	 D(3,1,2,4)       =         0.000000	       0.000000
	 D(3,1,2,8)       =         3.141593	     180.000000
	 D(3,5,6,4)       =         0.000000	       0.000000
	 D(3,5,6,12)      =         3.141593	     180.000000
	 D(4,2,1,7)       =         3.141593	     180.000000
	 D(4,6,5,11)      =         3.141593	     180.000000
	 D(5,3,1,7)       =         3.141593	     180.000000
	 D(5,6,4,10)      =         3.141593	     180.000000
	 D(6,4,2,8)       =         3.141593	     180.000000
	 D(6,5,3,9)       =         3.141593	     180.000000
	 D(7,1,2,8)       =        -0.000000	      -0.000000
	 D(7,1,3,9)       =        -0.000000	      -0.000000
	 D(8,2,4,10)      =         0.000000	       0.000000
	 D(9,3,5,11)      =         0.000000	       0.000000
	 D(10,4,6,12)     =        -0.000000	      -0.000000
	 D(11,5,6,12)     =        -0.000000	      -0.000000

	Current energy   :      -227.8927419629

	Energy change for the previous step:
		Projected    :        -0.0014808404
		Actual       :        -0.0004308033

	Performing BFGS update.
	Previous computed or guess Hessian on step 1.
	Steps to be used in Hessian update: 1
	Taking RFO optimization step.
	Going to follow RFO solution 1.
	Using RFO vector 1.
	Norm of target step-size    0.01723
	Projected energy change by RFO approximation:        -0.0001950686

	Back-transformation to cartesian coordinates...
	Successfully converged to displaced geometry.

	--- Internal Coordinate Step in ANG or DEG, aJ/ANG or AJ/DEG ---
	 ---------------------------------------------------------------------------
	   Coordinate                Previous        Force       Change         New 
	   ----------                --------       ------       ------       ------
	    1 R(1,2)          =      1.383331     0.037227     0.003570     1.386901
	    2 R(1,3)          =      1.383331     0.037227     0.003570     1.386901
	    3 R(1,7)          =      1.081488     0.008244     0.001039     1.082526
	    4 R(2,4)          =      1.383318     0.037366     0.003584     1.386902
	    5 R(2,8)          =      1.081489     0.008232     0.001037     1.082526
	    6 R(3,5)          =      1.383318     0.037366     0.003584     1.386902
	    7 R(3,9)          =      1.081489     0.008232     0.001037     1.082526
	    8 R(4,6)          =      1.383331     0.037227     0.003570     1.386901
	    9 R(4,10)         =      1.081489     0.008232     0.001037     1.082526
	   10 R(5,6)          =      1.383331     0.037227     0.003570     1.386901
	   11 R(5,11)         =      1.081489     0.008232     0.001037     1.082526
	   12 R(6,12)         =      1.081488     0.008244     0.001039     1.082526
	   13 B(1,2,4)        =    119.999786     0.000000     0.000261   120.000047
	   14 B(1,2,8)        =    120.000373    -0.000000    -0.000483   119.999890
	   15 B(1,3,5)        =    119.999786     0.000000     0.000261   120.000047
	   16 B(1,3,9)        =    120.000373    -0.000000    -0.000483   119.999890
	   17 B(2,1,3)        =    120.000427    -0.000000    -0.000521   119.999906
	   18 B(2,1,7)        =    119.999786     0.000000     0.000261   120.000047
	   19 B(2,4,6)        =    119.999786     0.000000     0.000261   120.000047
	   20 B(2,4,10)       =    119.999841     0.000000     0.000222   120.000063
	   21 B(3,1,7)        =    119.999786     0.000000     0.000261   120.000047
	   22 B(3,5,6)        =    119.999786     0.000000     0.000261   120.000047
	   23 B(3,5,11)       =    119.999841     0.000000     0.000222   120.000063
	   24 B(4,2,8)        =    119.999841     0.000000     0.000222   120.000063
	   25 B(4,6,5)        =    120.000427    -0.000000    -0.000521   119.999906
	   26 B(4,6,12)       =    119.999786     0.000000     0.000261   120.000047
	   27 B(5,3,9)        =    119.999841     0.000000     0.000222   120.000063
	   28 B(5,6,12)       =    119.999786     0.000000     0.000261   120.000047
	   29 B(6,4,10)       =    120.000373    -0.000000    -0.000483   119.999890
	   30 B(6,5,11)       =    120.000373    -0.000000    -0.000483   119.999890
	   31 D(1,2,4,6)      =      0.000000    -0.000000     0.000000     0.000000
	   32 D(1,2,4,10)     =    180.000000    -0.000000     0.000000   180.000000
	   33 D(1,3,5,6)      =      0.000000     0.000000     0.000000     0.000000
	   34 D(1,3,5,11)     =    180.000000     0.000000     0.000000   180.000000
	   35 D(2,1,3,5)      =      0.000000    -0.000000     0.000000     0.000000
	   36 D(2,1,3,9)      =    180.000000     0.000000     0.000000   180.000000
	   37 D(2,4,6,5)      =      0.000000     0.000000     0.000000     0.000000
	   38 D(2,4,6,12)     =    180.000000     0.000000     0.000000   180.000000
	   39 D(3,1,2,4)      =      0.000000     0.000000     0.000000     0.000000
	   40 D(3,1,2,8)      =    180.000000     0.000000     0.000000   180.000000
	   41 D(3,5,6,4)      =      0.000000    -0.000000     0.000000     0.000000
	   42 D(3,5,6,12)     =    180.000000     0.000000     0.000000   180.000000
	   43 D(4,2,1,7)      =    180.000000    -0.000000     0.000000   180.000000
	   44 D(4,6,5,11)     =    180.000000    -0.000000     0.000000   180.000000
	   45 D(5,3,1,7)      =    180.000000     0.000000     0.000000   180.000000
	   46 D(5,6,4,10)     =    180.000000    -0.000000     0.000000   180.000000
	   47 D(6,4,2,8)      =    180.000000    -0.000000     0.000000   180.000000
	   48 D(6,5,3,9)      =    180.000000    -0.000000     0.000000   180.000000
	   49 D(7,1,2,8)      =      0.000000    -0.000000     0.000000     0.000000
	   50 D(7,1,3,9)      =      0.000000     0.000000     0.000000     0.000000
	   51 D(8,2,4,10)     =      0.000000     0.000000     0.000000     0.000000
	   52 D(9,3,5,11)     =      0.000000    -0.000000     0.000000     0.000000
	   53 D(10,4,6,12)    =      0.000000    -0.000000     0.000000     0.000000
	   54 D(11,5,6,12)    =      0.000000    -0.000000     0.000000     0.000000
	 ---------------------------------------------------------------------------

  ==> Convergence Check <==

  Measures of convergence in internal coordinates in au.
  Criteria marked as inactive (o), active & met (*), and active & unmet ( ).
  ---------------------------------------------------------------------------------------------
   Step     Total Energy     Delta E     MAX Force     RMS Force      MAX Disp      RMS Disp   
  ---------------------------------------------------------------------------------------------
    Convergence Criteria    1.00e-08 *    3.00e-04 *             o    1.20e-03 *             o
  ---------------------------------------------------------------------------------------------
      2    -227.89274196   -4.31e-04      4.54e-03      1.54e-03 o    6.77e-03      2.34e-03 o  ~
  ---------------------------------------------------------------------------------------------

	Writing optimization data to binary file.
	Structure for next step:
	Cartesian Geometry (in Angstrom)
	    C    -1.3869024723  -0.0000000000   0.0000000000
	    C    -0.6934510443   1.2010908261  -0.0000000000
	    C    -0.6934510443  -1.2010908261  -0.0000000000
	    C     0.6934510443   1.2010908261   0.0000000000
	    C     0.6934510443  -1.2010908261   0.0000000000
	    C     1.3869024723   0.0000000000   0.0000000000
	    H    -2.4694286339  -0.0000000000   0.0000000000
	    H    -1.2347150103   2.1385851252   0.0000000000
	    H    -1.2347150103  -2.1385851252   0.0000000000
	    H     1.2347150103   2.1385851252   0.0000000000
	    H     1.2347150103  -2.1385851252  -0.0000000000
	    H     2.4694286339   0.0000000000   0.0000000000
			--------------------------
			 OPTKING Finished Execution 
			--------------------------

    Structure for next step:
    Molecular point group: d2h
    Full point group: D2h

    Geometry (in Angstrom), charge = 0, multiplicity = 1:

    C           -1.386902472284    -0.000000000000     0.000000000000
    C           -0.693451044300     1.201090826090    -0.000000000000
    C           -0.693451044300    -1.201090826090     0.000000000000
    C            0.693451044300     1.201090826090     0.000000000000
    C            0.693451044300    -1.201090826090     0.000000000000
    C            1.386902472284     0.000000000000     0.000000000000
    H           -2.469428633932    -0.000000000000     0.000000000000
    H           -1.234715010254     2.138585125184     0.000000000000
    H           -1.234715010254    -2.138585125184    -0.000000000000
    H            1.234715010254     2.138585125184    -0.000000000000
    H            1.234715010254    -2.138585125184     0.000000000000
    H            2.469428633932     0.000000000000     0.000000000000

gradient() will perform analytic gradient computation.

*** tstart() called on ds1.sherrill.chemistry.gatech.edu
*** at Mon Mar 14 15:33:42 2016


         ---------------------------------------------------------
                                   SCF
            by Justin Turney, Rob Parrish, and Andy Simmonett
                              RHF Reference
                        1 Threads,    250 MiB Core
         ---------------------------------------------------------

  ==> Geometry <==

    Molecular point group: d2h
    Full point group: D2h

    Geometry (in Angstrom), charge = 0, multiplicity = 1:

       Center              X                  Y                   Z               Mass       
    ------------   -----------------  -----------------  -----------------  -----------------
           C         -1.386902472284    -0.000000000000     0.000000000000    12.000000000000
           C         -0.693451044300     1.201090826090     0.000000000000    12.000000000000
           C         -0.693451044300    -1.201090826090     0.000000000000    12.000000000000
           C          0.693451044300     1.201090826090    -0.000000000000    12.000000000000
           C          0.693451044300    -1.201090826090     0.000000000000    12.000000000000
           C          1.386902472284     0.000000000000     0.000000000000    12.000000000000
           H         -2.469428633932    -0.000000000000     0.000000000000     1.007825032070
           H         -1.234715010254     2.138585125184    -0.000000000000     1.007825032070
           H         -1.234715010254    -2.138585125184     0.000000000000     1.007825032070
           H          1.234715010254     2.138585125184     0.000000000000     1.007825032070
           H          1.234715010254    -2.138585125184    -0.000000000000     1.007825032070
           H          2.469428633932     0.000000000000     0.000000000000     1.007825032070

  Running in d2h symmetry.

  Rotational constants: A =      0.19226  B =      0.19226  C =      0.09613 [cm^-1]
  Rotational constants: A =   5763.70185  B =   5763.68430  C =   2881.84654 [MHz]
  Nuclear repulsion =  204.522246879882715

  Charge       = 0
  Multiplicity = 1
  Electrons    = 42
  Nalpha       = 21
  Nbeta        = 21

  ==> Algorithm <==

  SCF Algorithm Type is DF.
  DIIS enabled.
  MOM disabled.
  Fractional occupation disabled.
  Guess Type is READ.
  Energy threshold   = 1.00e-08
  Density threshold  = 1.00e-08
  Integral threshold = 0.00e+00

  ==> Primary Basis <==

  Basis Set: STO-3G
    Number of shells: 24
    Number of basis function: 36
    Number of Cartesian functions: 36
    Spherical Harmonics?: true
    Max angular momentum: 1

  ==> Pre-Iterations <==

   -------------------------------------------------------
    Irrep   Nso     Nmo     Nalpha   Nbeta   Ndocc  Nsocc
   -------------------------------------------------------
     Ag         9       9       0       0       0       0
     B1g        6       6       0       0       0       0
     B2g        2       2       0       0       0       0
     B3g        1       1       0       0       0       0
     Au         1       1       0       0       0       0
     B1u        2       2       0       0       0       0
     B2u        6       6       0       0       0       0
     B3u        9       9       0       0       0       0
   -------------------------------------------------------
    Total      36      36      21      21      21       0
   -------------------------------------------------------

  ==> Integral Setup <==

  ==> DFJK: Density-Fitted J/K Matrices <==

    J tasked:                  Yes
    K tasked:                  Yes
    wK tasked:                  No
    OpenMP threads:              1
    Integrals threads:           1
    Memory (MB):               178
    Algorithm:                Core
    Integral Cache:           NONE
    Schwarz Cutoff:          1E-12
    Fitting Condition:       1E-12

   => Auxiliary Basis Set <=

  Basis Set: 
    Number of shells: 144
    Number of basis function: 420
    Number of Cartesian functions: 486
    Spherical Harmonics?: true
    Max angular momentum: 3

  Minimum eigenvalue in the overlap matrix is 1.6726912707E-01.
  Using Symmetric Orthogonalization.
  SCF Guess: Reading in previously saved MOs, projecting if necessary.

  Using orbitals from previous SCF, no projection.
  Recomputing DOCC and SOCC from number of alpha and beta electrons from previous calculation.
             Ag   B1g   B2g   B3g    Au   B1u   B2u   B3u 
    DOCC [     6,    3,    1,    1,    0,    1,    4,    5 ]

  ==> Iterations <==

                           Total Energy        Delta E     RMS |[F,P]|

   @DF-RHF iter   0:  -227.88295902023125   -2.27883e+02   1.02938e-03 
   @DF-RHF iter   1:  -227.89283225873535   -9.87324e-03   1.62336e-04 
   @DF-RHF iter   2:  -227.89283717773375   -4.91900e-06   1.73902e-05 DIIS
   @DF-RHF iter   3:  -227.89283722783134   -5.00976e-08   3.78621e-06 DIIS
   @DF-RHF iter   4:  -227.89283723086530   -3.03396e-09   1.42052e-07 DIIS
   @DF-RHF iter   5:  -227.89283723086928   -3.97904e-12   1.46666e-08 DIIS
   @DF-RHF iter   6:  -227.89283723086928    0.00000e+00   4.03606e-09 DIIS

  ==> Post-Iterations <==

    Orbital Energies (a.u.)
    -----------------------

    Doubly Occupied:                                                      

       1B3u  -11.029579     1B2u  -11.029579     1Ag   -11.029570  
       2Ag   -11.029178     1B1g  -11.029178     2B3u  -11.029012  
       3Ag    -1.095581     3B3u   -0.958120     2B2u   -0.958119  
       2B1g   -0.768985     4Ag    -0.768985     5Ag    -0.665676  
       4B3u   -0.593735     3B2u   -0.557159     5B3u   -0.536072  
       4B2u   -0.536071     1B1u   -0.460795     6Ag    -0.433777  
       3B1g   -0.433776     1B2g   -0.282574     1B3g   -0.282573  

    Virtual:                                                              

       1Au     0.270794     2B1u    0.270795     2B2g    0.509110  
       7Ag     0.579342     6B3u    0.650023     5B2u    0.650023  
       7B3u    0.729139     4B1g    0.743582     8Ag     0.743584  
       5B1g    0.890255     9Ag     0.890256     8B3u    0.906215  
       6B2u    0.906216     6B1g    1.099220     9B3u    1.163889  

    Final Occupation by Irrep:
             Ag   B1g   B2g   B3g    Au   B1u   B2u   B3u 
    DOCC [     6,    3,    1,    1,    0,    1,    4,    5 ]

  Energy converged.

  @DF-RHF Final Energy:  -227.89283723086928

   => Energetics <=

    Nuclear Repulsion Energy =            204.5222468798827151
    One-Electron Energy =                -713.8139796266673329
    Two-Electron Energy =                 281.3988955159153420
    DFT Exchange-Correlation Energy =       0.0000000000000000
    Empirical Dispersion Energy =           0.0000000000000000
    PCM Polarization Energy =               0.0000000000000000
    EFP Energy =                            0.0000000000000000
    Total Energy =                       -227.8928372308693042

    Alert: EFP and PCM quantities not currently incorporated into SCF psivars.

Properties will be evaluated at   0.000000,   0.000000,   0.000000 Bohr
  ==> Properties <==


Properties computed using the SCF density matrix

  Nuclear Dipole Moment: (a.u.)
     X:    -0.0000      Y:    -0.0000      Z:     0.0000

  Electronic Dipole Moment: (a.u.)
     X:     0.0000      Y:     0.0000      Z:     0.0000

  Dipole Moment: (a.u.)
     X:    -0.0000      Y:    -0.0000      Z:     0.0000     Total:     0.0000

  Dipole Moment: (Debye)
     X:    -0.0000      Y:    -0.0000      Z:     0.0000     Total:     0.0000


  Saving occupied orbitals to File 180.

*** tstop() called on ds1.sherrill.chemistry.gatech.edu at Mon Mar 14 15:33:43 2016
Module time:
	user time   =       0.36 seconds =       0.01 minutes
	system time =       0.01 seconds =       0.00 minutes
	total time  =          1 seconds =       0.02 minutes
Total time:
	user time   =       2.14 seconds =       0.04 minutes
	system time =       0.03 seconds =       0.00 minutes
	total time  =          2 seconds =       0.03 minutes

*** tstart() called on ds1.sherrill.chemistry.gatech.edu
*** at Mon Mar 14 15:33:43 2016


         ------------------------------------------------------------
                                   SCF GRAD                          
                          Rob Parrish, Justin Turney,                
                       Andy Simmonett, and Alex Sokolov              
         ------------------------------------------------------------

  ==> Geometry <==

    Molecular point group: d2h
    Full point group: D2h

    Geometry (in Angstrom), charge = 0, multiplicity = 1:

       Center              X                  Y                   Z               Mass       
    ------------   -----------------  -----------------  -----------------  -----------------
           C         -1.386902472284    -0.000000000000     0.000000000000    12.000000000000
           C         -0.693451044300     1.201090826090     0.000000000000    12.000000000000
           C         -0.693451044300    -1.201090826090     0.000000000000    12.000000000000
           C          0.693451044300     1.201090826090     0.000000000000    12.000000000000
           C          0.693451044300    -1.201090826090     0.000000000000    12.000000000000
           C          1.386902472284     0.000000000000     0.000000000000    12.000000000000
           H         -2.469428633932    -0.000000000000     0.000000000000     1.007825032070
           H         -1.234715010254     2.138585125184     0.000000000000     1.007825032070
           H         -1.234715010254    -2.138585125184     0.000000000000     1.007825032070
           H          1.234715010254     2.138585125184     0.000000000000     1.007825032070
           H          1.234715010254    -2.138585125184     0.000000000000     1.007825032070
           H          2.469428633932     0.000000000000     0.000000000000     1.007825032070

  Nuclear repulsion =  204.522246879882687

  ==> Basis Set <==

  Basis Set: STO-3G
    Number of shells: 24
    Number of basis function: 36
    Number of Cartesian functions: 36
    Spherical Harmonics?: true
    Max angular momentum: 1

  ==> DFJKGrad: Density-Fitted SCF Gradients <==

    Gradient:                    1
    J tasked:                  Yes
    K tasked:                  Yes
    wK tasked:                  No
    OpenMP threads:              1
    Integrals threads:           1
    Memory (MB):               178
    Schwarz Cutoff:          0E+00
    Fitting Condition:       1E-12

   => Auxiliary Basis Set <=

  Basis Set: 
    Number of shells: 144
    Number of basis function: 420
    Number of Cartesian functions: 486
    Spherical Harmonics?: true
    Max angular momentum: 3


  -Total Gradient:
     Atom            X                  Y                   Z
    ------   -----------------  -----------------  -----------------
       1       -0.000209095504    -0.000000000000     0.000000000000
       2       -0.000105177508     0.000180348063     0.000000000000
       3       -0.000105177508    -0.000180348063     0.000000000000
       4        0.000105177508     0.000180348063     0.000000000000
       5        0.000105177508    -0.000180348063     0.000000000000
       6        0.000209095504     0.000000000000     0.000000000000
       7        0.000084504259     0.000000000000     0.000000000000
       8        0.000042145760    -0.000073642420     0.000000000000
       9        0.000042145760     0.000073642420     0.000000000000
      10       -0.000042145760    -0.000073642420     0.000000000000
      11       -0.000042145760     0.000073642420     0.000000000000
      12       -0.000084504259    -0.000000000000     0.000000000000


*** tstop() called on ds1.sherrill.chemistry.gatech.edu at Mon Mar 14 15:33:43 2016
Module time:
	user time   =       0.47 seconds =       0.01 minutes
	system time =       0.01 seconds =       0.00 minutes
	total time  =          0 seconds =       0.00 minutes
Total time:
	user time   =       2.61 seconds =       0.04 minutes
	system time =       0.04 seconds =       0.00 minutes
	total time  =          2 seconds =       0.03 minutes

			-----------------------------------------
			 OPTKING 2.0: for geometry optimizations 
			  - R.A. King,  Bethel University        
			-----------------------------------------

	Previous internal coordinate definitions found.
	---Fragment 1 Geometry and Gradient---
	 C          -2.6208658456       -0.0000000000        0.0000000000
	 C          -1.3104325603        2.2697327220        0.0000000000
	 C          -1.3104325603       -2.2697327220        0.0000000000
	 C           1.3104325603        2.2697327220        0.0000000000
	 C           1.3104325603       -2.2697327220        0.0000000000
	 C           2.6208658456        0.0000000000        0.0000000000
	 H          -4.6665438228       -0.0000000000        0.0000000000
	 H          -2.3332732215        4.0413401985       -0.0000000000
	 H          -2.3332732215       -4.0413401985       -0.0000000000
	 H           2.3332732215        4.0413401985       -0.0000000000
	 H           2.3332732215       -4.0413401985       -0.0000000000
	 H           4.6665438228        0.0000000000        0.0000000000
	            -0.0002090955       -0.0000000000        0.0000000000
	            -0.0001051775        0.0001803481        0.0000000000
	            -0.0001051775       -0.0001803481        0.0000000000
	             0.0001051775        0.0001803481        0.0000000000
	             0.0001051775       -0.0001803481        0.0000000000
	             0.0002090955        0.0000000000        0.0000000000
	             0.0000845043        0.0000000000        0.0000000000
	             0.0000421458       -0.0000736424        0.0000000000
	             0.0000421458        0.0000736424        0.0000000000
	            -0.0000421458       -0.0000736424        0.0000000000
	            -0.0000421458        0.0000736424        0.0000000000
	            -0.0000845043       -0.0000000000        0.0000000000

	---Fragment 1 Intrafragment Coordinates---
	 - Coordinate -           - BOHR/RAD -       - ANG/DEG -
	 R(1,2)           =         2.620863	       1.386901
	 R(1,3)           =         2.620863	       1.386901
	 R(1,7)           =         2.045678	       1.082526
	 R(2,4)           =         2.620865	       1.386902
	 R(2,8)           =         2.045677	       1.082526
	 R(3,5)           =         2.620865	       1.386902
	 R(3,9)           =         2.045677	       1.082526
	 R(4,6)           =         2.620863	       1.386901
	 R(4,10)          =         2.045677	       1.082526
	 R(5,6)           =         2.620863	       1.386901
	 R(5,11)          =         2.045677	       1.082526
	 R(6,12)          =         2.045678	       1.082526
	 B(1,2,4)         =         2.094396	     120.000047
	 B(1,2,8)         =         2.094393	     119.999890
	 B(1,3,5)         =         2.094396	     120.000047
	 B(1,3,9)         =         2.094393	     119.999890
	 B(2,1,3)         =         2.094393	     119.999906
	 B(2,1,7)         =         2.094396	     120.000047
	 B(2,4,6)         =         2.094396	     120.000047
	 B(2,4,10)        =         2.094396	     120.000063
	 B(3,1,7)         =         2.094396	     120.000047
	 B(3,5,6)         =         2.094396	     120.000047
	 B(3,5,11)        =         2.094396	     120.000063
	 B(4,2,8)         =         2.094396	     120.000063
	 B(4,6,5)         =         2.094393	     119.999906
	 B(4,6,12)        =         2.094396	     120.000047
	 B(5,3,9)         =         2.094396	     120.000063
	 B(5,6,12)        =         2.094396	     120.000047
	 B(6,4,10)        =         2.094393	     119.999890
	 B(6,5,11)        =         2.094393	     119.999890
	 D(1,2,4,6)       =         0.000000	       0.000000
	 D(1,2,4,10)      =         3.141593	     180.000000
	 D(1,3,5,6)       =         0.000000	       0.000000
	 D(1,3,5,11)      =         3.141593	     180.000000
	 D(2,1,3,5)       =         0.000000	       0.000000
	 D(2,1,3,9)       =         3.141593	     180.000000
	 D(2,4,6,5)       =         0.000000	       0.000000
	 D(2,4,6,12)      =         3.141593	     180.000000
	 D(3,1,2,4)       =         0.000000	       0.000000
	 D(3,1,2,8)       =         3.141593	     180.000000
	 D(3,5,6,4)       =         0.000000	       0.000000
	 D(3,5,6,12)      =         3.141593	     180.000000
	 D(4,2,1,7)       =         3.141593	     180.000000
	 D(4,6,5,11)      =         3.141593	     180.000000
	 D(5,3,1,7)       =         3.141593	     180.000000
	 D(5,6,4,10)      =         3.141593	     180.000000
	 D(6,4,2,8)       =         3.141593	     180.000000
	 D(6,5,3,9)       =         3.141593	     180.000000
	 D(7,1,2,8)       =        -0.000000	      -0.000000
	 D(7,1,3,9)       =         0.000000	       0.000000
	 D(8,2,4,10)      =         0.000000	       0.000000
	 D(9,3,5,11)      =         0.000000	       0.000000
	 D(10,4,6,12)     =         0.000000	       0.000000
	 D(11,5,6,12)     =        -0.000000	      -0.000000

	Current energy   :      -227.8928372309

	Energy change for the previous step:
		Projected    :        -0.0001950686
		Actual       :        -0.0000952679

	Performing BFGS update.
	Previous computed or guess Hessian on step 1.
	Steps to be used in Hessian update: 2 1
	Taking RFO optimization step.
	Going to follow RFO solution 1.
	Using RFO vector 1.
	Norm of target step-size    0.00081
	Projected energy change by RFO approximation:        -0.0000002873

	Back-transformation to cartesian coordinates...
	Successfully converged to displaced geometry.

	--- Internal Coordinate Step in ANG or DEG, aJ/ANG or AJ/DEG ---
	 ---------------------------------------------------------------------------
	   Coordinate                Previous        Force       Change         New 
	   ----------                --------       ------       ------       ------
	    1 R(1,2)          =      1.386901    -0.001018    -0.000111     1.386790
	    2 R(1,3)          =      1.386901    -0.001018    -0.000111     1.386790
	    3 R(1,7)          =      1.082526     0.000696     0.000136     1.082662
	    4 R(2,4)          =      1.386902    -0.001033    -0.000112     1.386790
	    5 R(2,8)          =      1.082526     0.000699     0.000136     1.082662
	    6 R(3,5)          =      1.386902    -0.001033    -0.000112     1.386790
	    7 R(3,9)          =      1.082526     0.000699     0.000136     1.082662
	    8 R(4,6)          =      1.386901    -0.001018    -0.000111     1.386790
	    9 R(4,10)         =      1.082526     0.000699     0.000136     1.082662
	   10 R(5,6)          =      1.386901    -0.001018    -0.000111     1.386790
	   11 R(5,11)         =      1.082526     0.000699     0.000136     1.082662
	   12 R(6,12)         =      1.082526     0.000696     0.000136     1.082662
	   13 B(1,2,4)        =    120.000047    -0.000000    -0.000069   119.999978
	   14 B(1,2,8)        =    119.999890     0.000000     0.000149   120.000039
	   15 B(1,3,5)        =    120.000047    -0.000000    -0.000069   119.999978
	   16 B(1,3,9)        =    119.999890     0.000000     0.000149   120.000039
	   17 B(2,1,3)        =    119.999906     0.000000     0.000137   120.000043
	   18 B(2,1,7)        =    120.000047    -0.000000    -0.000069   119.999978
	   19 B(2,4,6)        =    120.000047    -0.000000    -0.000069   119.999978
	   20 B(2,4,10)       =    120.000063    -0.000000    -0.000081   119.999983
	   21 B(3,1,7)        =    120.000047    -0.000000    -0.000069   119.999978
	   22 B(3,5,6)        =    120.000047    -0.000000    -0.000069   119.999978
	   23 B(3,5,11)       =    120.000063    -0.000000    -0.000081   119.999983
	   24 B(4,2,8)        =    120.000063    -0.000000    -0.000081   119.999983
	   25 B(4,6,5)        =    119.999906     0.000000     0.000137   120.000043
	   26 B(4,6,12)       =    120.000047    -0.000000    -0.000069   119.999978
	   27 B(5,3,9)        =    120.000063    -0.000000    -0.000081   119.999983
	   28 B(5,6,12)       =    120.000047    -0.000000    -0.000069   119.999978
	   29 B(6,4,10)       =    119.999890     0.000000     0.000149   120.000039
	   30 B(6,5,11)       =    119.999890     0.000000     0.000149   120.000039
	   31 D(1,2,4,6)      =      0.000000     0.000000     0.000000     0.000000
	   32 D(1,2,4,10)     =    180.000000     0.000000     0.000000   180.000000
	   33 D(1,3,5,6)      =      0.000000    -0.000000     0.000000     0.000000
	   34 D(1,3,5,11)     =    180.000000     0.000000     0.000000   180.000000
	   35 D(2,1,3,5)      =      0.000000     0.000000     0.000000     0.000000
	   36 D(2,1,3,9)      =    180.000000     0.000000     0.000000   180.000000
	   37 D(2,4,6,5)      =      0.000000    -0.000000     0.000000     0.000000
	   38 D(2,4,6,12)     =    180.000000     0.000000     0.000000   180.000000
	   39 D(3,1,2,4)      =      0.000000    -0.000000     0.000000     0.000000
	   40 D(3,1,2,8)      =    180.000000    -0.000000     0.000000   180.000000
	   41 D(3,5,6,4)      =      0.000000     0.000000     0.000000     0.000000
	   42 D(3,5,6,12)     =    180.000000    -0.000000     0.000000   180.000000
	   43 D(4,2,1,7)      =    180.000000    -0.000000     0.000000   180.000000
	   44 D(4,6,5,11)     =    180.000000     0.000000     0.000000   180.000000
	   45 D(5,3,1,7)      =    180.000000     0.000000     0.000000   180.000000
	   46 D(5,6,4,10)     =    180.000000    -0.000000     0.000000   180.000000
	   47 D(6,4,2,8)      =    180.000000     0.000000     0.000000   180.000000
	   48 D(6,5,3,9)      =    180.000000    -0.000000     0.000000   180.000000
	   49 D(7,1,2,8)      =      0.000000     0.000000     0.000000     0.000000
	   50 D(7,1,3,9)      =      0.000000    -0.000000     0.000000     0.000000
	   51 D(8,2,4,10)     =      0.000000    -0.000000     0.000000     0.000000
	   52 D(9,3,5,11)     =      0.000000     0.000000     0.000000     0.000000
	   53 D(10,4,6,12)    =      0.000000     0.000000     0.000000     0.000000
	   54 D(11,5,6,12)    =      0.000000    -0.000000     0.000000     0.000000
	 ---------------------------------------------------------------------------

  ==> Convergence Check <==

  Measures of convergence in internal coordinates in au.
  Criteria marked as inactive (o), active & met (*), and active & unmet ( ).
  ---------------------------------------------------------------------------------------------
   Step     Total Energy     Delta E     MAX Force     RMS Force      MAX Disp      RMS Disp   
  ---------------------------------------------------------------------------------------------
    Convergence Criteria    1.00e-08 *    3.00e-04 *             o    1.20e-03 *             o
  ---------------------------------------------------------------------------------------------
      3    -227.89283723   -9.53e-05      1.25e-04 *    5.01e-05 o    2.58e-04 *    1.11e-04 o  ~
  ---------------------------------------------------------------------------------------------

	Writing optimization data to binary file.
	Structure for next step:
	Cartesian Geometry (in Angstrom)
	    C    -1.3867895142  -0.0000000000   0.0000000000
	    C    -0.6933947988   1.2009959218   0.0000000000
	    C    -0.6933947988  -1.2009959218   0.0000000000
	    C     0.6933947988   1.2009959218   0.0000000000
	    C     0.6933947988  -1.2009959218  -0.0000000000
	    C     1.3867895142   0.0000000000   0.0000000000
	    H    -2.4694514788  -0.0000000000   0.0000000000
	    H    -1.2347256004   2.1386090270   0.0000000000
	    H    -1.2347256004  -2.1386090270   0.0000000000
	    H     1.2347256004   2.1386090270  -0.0000000000
	    H     1.2347256004  -2.1386090270  -0.0000000000
	    H     2.4694514788   0.0000000000   0.0000000000
			--------------------------
			 OPTKING Finished Execution 
			--------------------------

    Structure for next step:
    Molecular point group: d2h
    Full point group: D2h

    Geometry (in Angstrom), charge = 0, multiplicity = 1:

    C           -1.386789514187    -0.000000000000     0.000000000000
    C           -0.693394798829     1.200995921820     0.000000000000
    C           -0.693394798829    -1.200995921820     0.000000000000
    C            0.693394798829     1.200995921820     0.000000000000
    C            0.693394798829    -1.200995921820     0.000000000000
    C            1.386789514187     0.000000000000     0.000000000000
    H           -2.469451478841    -0.000000000000     0.000000000000
    H           -1.234725600383     2.138609026987     0.000000000000
    H           -1.234725600383    -2.138609026987     0.000000000000
    H            1.234725600383     2.138609026987    -0.000000000000
    H            1.234725600383    -2.138609026987     0.000000000000
    H            2.469451478841     0.000000000000     0.000000000000

gradient() will perform analytic gradient computation.

*** tstart() called on ds1.sherrill.chemistry.gatech.edu
*** at Mon Mar 14 15:33:43 2016


         ---------------------------------------------------------
                                   SCF
            by Justin Turney, Rob Parrish, and Andy Simmonett
                              RHF Reference
                        1 Threads,    250 MiB Core
         ---------------------------------------------------------

  ==> Geometry <==

    Molecular point group: d2h
    Full point group: D2h

    Geometry (in Angstrom), charge = 0, multiplicity = 1:

       Center              X                  Y                   Z               Mass       
    ------------   -----------------  -----------------  -----------------  -----------------
           C         -1.386789514187    -0.000000000000     0.000000000000    12.000000000000
           C         -0.693394798829     1.200995921820     0.000000000000    12.000000000000
           C         -0.693394798829    -1.200995921820     0.000000000000    12.000000000000
           C          0.693394798829     1.200995921820     0.000000000000    12.000000000000
           C          0.693394798829    -1.200995921820     0.000000000000    12.000000000000
           C          1.386789514187     0.000000000000     0.000000000000    12.000000000000
           H         -2.469451478841    -0.000000000000     0.000000000000     1.007825032070
           H         -1.234725600383     2.138609026987     0.000000000000     1.007825032070
           H         -1.234725600383    -2.138609026987     0.000000000000     1.007825032070
[...]

    Occupation by irrep:
             Ag   B1g   B2g   B3g    Au   B1u   B2u   B3u 
    DOCC [     7,    4,    0,    0,    0,    0,    3,    6 ]
    SOCC [     0,    0,    0,    0,    0,    0,    1,    1 ]

   @DF-ROHF iter   1:  -194.12349358293002   -1.94123e+02   8.64518e-02 
    Occupation by irrep:
             Ag   B1g   B2g   B3g    Au   B1u   B2u   B3u 
    DOCC [     6,    3,    0,    1,    0,    1,    4,    5 ]
    SOCC [     0,    0,    1,    0,    0,    1,    0,    0 ]

   @DF-ROHF iter   2:  -189.64676859003342    4.47672e+00   8.64482e-02 DIIS
   @DF-ROHF iter   3:  -230.10928491451446   -4.04625e+01   1.28757e-02 DIIS
   @DF-ROHF iter   4:  -230.55627912407331   -4.46994e-01   1.76361e-03 DIIS
   @DF-ROHF iter   5:  -230.56669642098328   -1.04173e-02   6.94813e-04 DIIS
   @DF-ROHF iter   6:  -230.56793212819449   -1.23571e-03   2.26211e-04 DIIS
   @DF-ROHF iter   7:  -230.56805629354241   -1.24165e-04   6.04167e-05 DIIS
   @DF-ROHF iter   8:  -230.56806525330992   -8.95977e-06   1.03964e-05 DIIS
   @DF-ROHF iter   9:  -230.56806569483254   -4.41523e-07   1.73809e-06 DIIS
   @DF-ROHF iter  10:  -230.56806570654757   -1.17150e-08   3.00865e-07 DIIS

  ==> Post-Iterations <==

    Orbital Energies (a.u.)
    -----------------------

    Doubly Occupied:                                                      

       1Ag   -11.234924     1B2u  -11.234899     1B3u  -11.233662  
       1B1g  -11.233605     2Ag   -11.222226     2B3u  -11.222220  
       3Ag    -1.153371     3B3u   -1.014851     2B2u   -1.012632  
       2B1g   -0.824754     4Ag    -0.820420     5Ag    -0.707927  
       4B3u   -0.637065     3B2u   -0.617798     5B3u   -0.586740  
       4B2u   -0.583587     3B1g   -0.491045     6Ag    -0.487988  
       1B1u   -0.476899     1B3g   -0.349158  

    Singly Occupied:                                                      

       1B2g   -0.206460     2B1u    0.018972  

    Virtual:                                                              

       1Au     0.157264     7Ag     0.182850     6B3u    0.219758  
       5B2u    0.222455     8Ag     0.257342     4B1g    0.258232  
       7B3u    0.274698     2B2g    0.331936     5B1g    0.437211  
       9Ag     0.441209     8B3u    0.472078     6B2u    0.475410  
       7B2u    0.583892    10Ag     0.590995     3B1u    0.676002  
       9B3u    0.677060    11Ag     0.707251     3B2g    0.726730  
       2B3g    0.730826     8B2u    0.741770    12Ag     0.741987  
      10B3u    0.744867     6B1g    0.749308     7B1g    0.751307  
       4B1u    0.811056     2Au     0.824384    11B3u    0.849997  
       9B2u    0.857866     8B1g    0.889551    13Ag     0.893427  
       4B2g    0.907433    12B3u    0.994371    14Ag     0.999501  
       5B1u    1.045321    10B2u    1.109110    13B3u    1.113718  
       9B1g    1.135967     3B3g    1.151126    15Ag     1.202598  
      10B1g    1.208382     5B2g    1.245771     4B3g    1.248541  
      14B3u    1.249319    11B2u    1.249813    15B3u    1.319006  
       3Au     1.321460     6B1u    1.323623    16Ag     1.468813  
      11B1g    1.515679    17Ag     1.516766    12B2u    1.722285  
       7B1u    1.746832     4Au     1.747167     6B2g    1.771852  
      18Ag     1.818264    12B1g    1.877261    19Ag     1.879796  
       8B1u    1.900963    16B3u    1.904424    13B2u    1.905695  
       7B2g    1.953050     5B3g    1.956402    17B3u    1.967489  
      18B3u    1.968440    14B2u    1.971256     6B3g    2.097099  
       8B2g    2.100659    15B2u    2.131743    19B3u    2.153958  
      16B2u    2.160271    13B1g    2.173734    14B1g    2.178424  
      20Ag     2.180366     9B1u    2.270623     5Au     2.272752  
      21Ag     2.290387    15B1g    2.290564    20B3u    2.335385  
       6Au     2.512953     9B2g    2.571371    22Ag     2.712928  
      23Ag     2.777517    16B1g    2.779194    21B3u    2.801101  
      17B2u    2.801201    22B3u    2.984910    18B2u    2.985723  
      23B3u    3.014585    17B1g    3.153410    18B1g    3.296098  
      24Ag     3.299371    24B3u    4.064591  

    Final Occupation by Irrep:
             Ag   B1g   B2g   B3g    Au   B1u   B2u   B3u 
    DOCC [     6,    3,    0,    1,    0,    1,    4,    5 ]
    SOCC [     0,    0,    1,    0,    0,    1,    0,    0 ]

  Energy converged.

  @DF-ROHF Final Energy:  -230.56806570654757

   => Energetics <=

    Nuclear Repulsion Energy =            204.5315859382192514
    One-Electron Energy =                -715.2671366136155484
    Two-Electron Energy =                 280.1674849688487257
    DFT Exchange-Correlation Energy =       0.0000000000000000
    Empirical Dispersion Energy =           0.0000000000000000
    PCM Polarization Energy =               0.0000000000000000
    EFP Energy =                            0.0000000000000000
    Total Energy =                       -230.5680657065475998

    Alert: EFP and PCM quantities not currently incorporated into SCF psivars.

Properties will be evaluated at   0.000000,   0.000000,   0.000000 Bohr
  ==> Properties <==


Properties computed using the SCF density matrix

  Nuclear Dipole Moment: (a.u.)
     X:     0.0000      Y:     0.0000      Z:     0.0000

  Electronic Dipole Moment: (a.u.)
     X:     0.0000      Y:     0.0000      Z:     0.0000

  Dipole Moment: (a.u.)
     X:     0.0000      Y:     0.0000      Z:     0.0000     Total:     0.0000

  Dipole Moment: (Debye)
     X:     0.0000      Y:     0.0000      Z:     0.0000     Total:     0.0000


  Saving occupied orbitals to File 180.

*** tstop() called on ds1.sherrill.chemistry.gatech.edu at Mon Mar 14 15:33:49 2016
Module time:
	user time   =       1.98 seconds =       0.03 minutes
	system time =       0.01 seconds =       0.00 minutes
	total time  =          2 seconds =       0.03 minutes
Total time:
	user time   =       8.79 seconds =       0.15 minutes
	system time =       0.10 seconds =       0.00 minutes
	total time  =          8 seconds =       0.13 minutes

*** tstart() called on ds1.sherrill.chemistry.gatech.edu
*** at Mon Mar 14 15:33:50 2016


         ---------------------------------------------------------
                                   SCF
            by Justin Turney, Rob Parrish, and Andy Simmonett
                              UHF Reference
                        1 Threads,    250 MiB Core
         ---------------------------------------------------------

  ==> Geometry <==

    Molecular point group: d2h
    Full point group: D2h

    Geometry (in Angstrom), charge = 0, multiplicity = 3:

       Center              X                  Y                   Z               Mass       
    ------------   -----------------  -----------------  -----------------  -----------------
           C         -1.386806118036    -0.000000000000     0.000000000000    12.000000000000
           C         -0.693403061430     1.201009395091     0.000000000000    12.000000000000
           C         -0.693403061430    -1.201009395091    -0.000000000000    12.000000000000
           C          0.693403061430     1.201009395091    -0.000000000000    12.000000000000
           C          0.693403061430    -1.201009395091     0.000000000000    12.000000000000
           C          1.386806118036     0.000000000000     0.000000000000    12.000000000000
           H         -2.469422562204    -0.000000000000     0.000000000000     1.007825032070
           H         -1.234711272581     2.138582770481     0.000000000000     1.007825032070
           H         -1.234711272581    -2.138582770481     0.000000000000     1.007825032070
           H          1.234711272581     2.138582770481     0.000000000000     1.007825032070
           H          1.234711272581    -2.138582770481     0.000000000000     1.007825032070
           H          2.469422562204     0.000000000000     0.000000000000     1.007825032070

  Running in d2h symmetry.

  Rotational constants: A =      0.19228  B =      0.19228  C =      0.09614 [cm^-1]
  Rotational constants: A =   5764.32237  B =   5764.32176  C =   2882.16103 [MHz]
  Nuclear repulsion =  204.531585938219251

  Charge       = 0
  Multiplicity = 3
  Electrons    = 42
  Nalpha       = 22
  Nbeta        = 20

  ==> Algorithm <==

  SCF Algorithm Type is DF.
  DIIS enabled.
  MOM disabled.
  Fractional occupation disabled.
  Guess Type is CORE.
  Energy threshold   = 1.00e-06
  Density threshold  = 1.00e-06
  Integral threshold = 0.00e+00

  ==> Primary Basis <==

  Basis Set: CC-PVDZ
    Number of shells: 54
    Number of basis function: 114
    Number of Cartesian functions: 120
    Spherical Harmonics?: true
    Max angular momentum: 2

  ==> Pre-Iterations <==

   -------------------------------------------------------
    Irrep   Nso     Nmo     Nalpha   Nbeta   Ndocc  Nsocc
   -------------------------------------------------------
     Ag        24      24       0       0       0       0
     B1g       18      18       0       0       0       0
     B2g        9       9       0       0       0       0
     B3g        6       6       0       0       0       0
     Au         6       6       0       0       0       0
     B1u        9       9       0       0       0       0
     B2u       18      18       0       0       0       0
     B3u       24      24       0       0       0       0
   -------------------------------------------------------
    Total     114     114      22      20      20       2
   -------------------------------------------------------

  ==> Integral Setup <==

  ==> DFJK: Density-Fitted J/K Matrices <==

    J tasked:                  Yes
    K tasked:                  Yes
    wK tasked:                  No
    OpenMP threads:              1
    Integrals threads:           1
    Memory (MB):               178
    Algorithm:                Core
    Integral Cache:           NONE
    Schwarz Cutoff:          1E-12
    Fitting Condition:       1E-12

   => Auxiliary Basis Set <=

  Basis Set: 
    Number of shells: 198
    Number of basis function: 558
    Number of Cartesian functions: 636
    Spherical Harmonics?: true
    Max angular momentum: 3

  Minimum eigenvalue in the overlap matrix is 3.4496152184E-04.
  Using Symmetric Orthogonalization.
  SCF Guess: Core (One-Electron) Hamiltonian.

  ==> Iterations <==

                           Total Energy        Delta E     RMS |[F,P]|

    Occupation by irrep:
             Ag   B1g   B2g   B3g    Au   B1u   B2u   B3u 
    DOCC [     7,    4,    0,    0,    0,    0,    3,    6 ]
    SOCC [     0,    0,    0,    0,    0,    0,    1,    1 ]

   @DF-UHF iter   1:  -194.12349358288739   -1.94123e+02   1.19754e-01 
    Occupation by irrep:
             Ag   B1g   B2g   B3g    Au   B1u   B2u   B3u 
    DOCC [     6,    3,    0,    1,    0,    1,    4,    5 ]
    SOCC [     0,    0,    1,    0,    0,    1,    0,    0 ]

   @DF-UHF iter   2:  -189.67745905051956    4.44603e+00   1.15940e-01 DIIS
   @DF-UHF iter   3:  -229.92492121716955   -4.02475e+01   2.09766e-02 DIIS
   @DF-UHF iter   4:  -230.53111108690965   -6.06190e-01   5.21831e-03 DIIS
   @DF-UHF iter   5:  -230.57417581113597   -4.30647e-02   7.08324e-04 DIIS
   @DF-UHF iter   6:  -230.57522752550213   -1.05171e-03   3.11347e-04 DIIS
   @DF-UHF iter   7:  -230.57540690421783   -1.79379e-04   1.30452e-04 DIIS
   @DF-UHF iter   8:  -230.57544927105207   -4.23668e-05   4.98835e-05 DIIS
   @DF-UHF iter   9:  -230.57545839403681   -9.12298e-06   2.02558e-05 DIIS
   @DF-UHF iter  10:  -230.57545968347202   -1.28944e-06   4.30289e-06 DIIS
   @DF-UHF iter  11:  -230.57545974690245   -6.34304e-08   1.12734e-06 DIIS
   @DF-UHF iter  12:  -230.57545975098500   -4.08255e-09   2.67388e-07 DIIS

  ==> Post-Iterations <==

   @Spin Contamination Metric:   1.672383075E-02
   @S^2 Expected:                2.000000000E+00
   @S^2 Observed:                2.016723831E+00
   @S   Expected:                1.000000000E+00
   @S   Observed:                1.000000000E+00

    Orbital Energies (a.u.)
    -----------------------

    Alpha Occupied:                                                       

       1Ag   -11.235320     1B2u  -11.235193     1B3u  -11.234123  
       1B1g  -11.233893     2Ag   -11.230984     2B3u  -11.230906  
       3Ag    -1.173292     3B3u   -1.050421     2B2u   -1.018975  
       4Ag    -0.844020     2B1g   -0.830492     5Ag    -0.711920  
       4B3u   -0.645552     3B2u   -0.623969     5B3u   -0.592911  
       4B2u   -0.583929     1B1u   -0.559921     3B1g   -0.495070  
       6Ag    -0.490452     1B2g   -0.446792     1B3g   -0.372124  
       2B1u   -0.176517  

    Alpha Virtual:                                                        

       1Au     0.138133     7Ag     0.181080     6B3u    0.217101  
       5B2u    0.222177     8Ag     0.253142     4B1g    0.257080  
       7B3u    0.272325     2B2g    0.291470     9Ag     0.432561  
       5B1g    0.435191     8B3u    0.471018     6B2u    0.471807  
       7B2u    0.581608    10Ag     0.587785     3B1u    0.652496  
       9B3u    0.659710     3B2g    0.692227    11Ag     0.700404  
      12Ag     0.724132     2B3g    0.724798    10B3u    0.727772  
       8B2u    0.736836     6B1g    0.743037     7B1g    0.749464  
       4B1u    0.780761     2Au     0.817726    11B3u    0.847233  
       9B2u    0.856227     4B2g    0.888655    13Ag     0.888695  
       8B1g    0.889408    12B3u    0.986902    14Ag     0.995517  
       5B1u    1.029024    10B2u    1.105910    13B3u    1.106268  
       3B3g    1.124035     9B1g    1.132924    15Ag     1.192008  
      10B1g    1.206473     5B2g    1.220818     4B3g    1.244226  
      14B3u    1.244918    11B2u    1.248934     3Au     1.301310  
       6B1u    1.307941    15B3u    1.315538    16Ag     1.459163  
      11B1g    1.512620    17Ag     1.512808    12B2u    1.719326  
       7B1u    1.735450     4Au     1.736195     6B2g    1.766185  
      18Ag     1.811635    12B1g    1.875163    19Ag     1.877034  
      16B3u    1.893303     8B1u    1.897528    13B2u    1.904233  
       7B2g    1.946047     5B3g    1.950751    17B3u    1.962757  
      18B3u    1.965143    14B2u    1.970994     6B3g    2.080369  
       8B2g    2.091434    15B2u    2.131327    19B3u    2.146301  
      16B2u    2.157406    13B1g    2.172620    20Ag     2.175728  
      14B1g    2.177185     9B1u    2.258269     5Au     2.270232  
      21Ag     2.280945    15B1g    2.289227    20B3u    2.329962  
       6Au     2.500742     9B2g    2.562777    22Ag     2.711572  
      23Ag     2.771495    16B1g    2.776979    21B3u    2.799400  
      17B2u    2.801024    22B3u    2.979637    18B2u    2.982970  
      23B3u    3.011455    17B1g    3.151934    18B1g    3.295382  
      24Ag     3.296510    24B3u    4.062208  

    Beta Occupied:                                                        

       1B2u  -11.234612     1Ag   -11.234609     1B3u  -11.233345  
       1B1g  -11.233323     2B3u  -11.209424     2Ag   -11.209423  
       3Ag    -1.135241     2B2u   -1.006258     3B3u   -0.981307  
       2B1g   -0.818707     4Ag    -0.796946     5Ag    -0.703459  
       4B3u   -0.628137     3B2u   -0.611119     4B2u   -0.583277  
       5B3u   -0.579672     3B1g   -0.486557     6Ag    -0.485143  
       1B1u   -0.429114     1B3g   -0.326111  

    Beta Virtual:                                                         

       1B2g   -0.006145     1Au     0.176743     7Ag     0.184682  
       5B2u    0.222652     6B3u    0.222802     2B1u    0.225519  
       4B1g    0.259326     8Ag     0.261826     7B3u    0.277222  
       2B2g    0.393302     5B1g    0.439426     9Ag     0.449476  
       8B3u    0.473218     6B2u    0.479312     7B2u    0.586397  
      10Ag     0.594029     9B3u    0.691740     3B1u    0.698197  
      11Ag     0.712793     2B3g    0.736843     8B2u    0.746921  
       6B1g    0.752509     7B1g    0.756852    12Ag     0.763755  
      10B3u    0.765940     3B2g    0.767494     2Au     0.831201  
      11B3u    0.853157     9B2u    0.859806     4B1u    0.864734  
       8B1g    0.889777    13Ag     0.899125     4B2g    0.938202  
      12B3u    1.003073    14Ag     1.003833     5B1u    1.062011  
      10B2u    1.112594    13B3u    1.122045     9B1g    1.139658  
       3B3g    1.178140    10B1g    1.210256    15Ag     1.214043  
      11B2u    1.250757     4B3g    1.252953    14B3u    1.254352  
       5B2g    1.271745    15B3u    1.322934     6B1u    1.340751  
       3Au     1.341216    16Ag     1.479052    11B1g    1.518890  
      17Ag     1.521318    12B2u    1.725575     4Au     1.758949  
       7B1u    1.759204     6B2g    1.777881    18Ag     1.825290  
      12B1g    1.879748    19Ag     1.882963     8B1u    1.904816  
      13B2u    1.907266    16B3u    1.915898     7B2g    1.960811  
       5B3g    1.961294    14B2u    1.971685    17B3u    1.971774  
      18B3u    1.972807     8B2g    2.110817     6B3g    2.115636  
      15B2u    2.132358    19B3u    2.162752    16B2u    2.163744  
      13B1g    2.174090    14B1g    2.181152    20Ag     2.185540  
       5Au     2.275218     9B1u    2.284254    15B1g    2.291859  
      21Ag     2.301265    20B3u    2.341770     6Au     2.525886  
       9B2g    2.580657    22Ag     2.714691    16B1g    2.781731  
      23Ag     2.784634    17B2u    2.801359    21B3u    2.803752  
      18B2u    2.988977    22B3u    2.990370    23B3u    3.018615  
      17B1g    3.155294    18B1g    3.297026    24Ag     3.302938  
      24B3u    4.067448  

    Final Occupation by Irrep:
             Ag   B1g   B2g   B3g    Au   B1u   B2u   B3u 
    DOCC [     6,    3,    0,    1,    0,    1,    4,    5 ]
    SOCC [     0,    0,    1,    0,    0,    1,    0,    0 ]

  Energy converged.

  @DF-UHF Final Energy:  -230.57545975098500

   => Energetics <=

    Nuclear Repulsion Energy =            204.5315859382192514
    One-Electron Energy =                -715.2715115755348734
    Two-Electron Energy =                 280.1644658863306176
    DFT Exchange-Correlation Energy =       0.0000000000000000
    Empirical Dispersion Energy =           0.0000000000000000
    PCM Polarization Energy =               0.0000000000000000
    EFP Energy =                            0.0000000000000000
    Total Energy =                       -230.5754597509850328

    Alert: EFP and PCM quantities not currently incorporated into SCF psivars.

Properties will be evaluated at   0.000000,   0.000000,   0.000000 Bohr
  ==> Properties <==


Properties computed using the SCF density matrix

  Nuclear Dipole Moment: (a.u.)
     X:     0.0000      Y:     0.0000      Z:    -0.0000

  Electronic Dipole Moment: (a.u.)
     X:     0.0000      Y:     0.0000      Z:     0.0000

  Dipole Moment: (a.u.)
     X:     0.0000      Y:     0.0000      Z:    -0.0000     Total:     0.0000

  Dipole Moment: (Debye)
     X:     0.0000      Y:     0.0000      Z:    -0.0000     Total:     0.0000


  Saving occupied orbitals to File 180.

  UHF NO Occupations:
  HONO-2 :    6 Ag 1.9974227
  HONO-1 :    1B2g 1.0000000
  HONO-0 :    2B1u 1.0000000
  LUNO+0 :    7 Ag 0.0025773
  LUNO+1 :    6B3u 0.0024200
  LUNO+2 :    3B1u 0.0016372
  LUNO+3 :    8 Ag 0.0004878


*** tstop() called on ds1.sherrill.chemistry.gatech.edu at Mon Mar 14 15:33:52 2016
Module time:
	user time   =       2.07 seconds =       0.03 minutes
	system time =       0.01 seconds =       0.00 minutes
	total time  =          2 seconds =       0.03 minutes
Total time:
	user time   =      10.96 seconds =       0.18 minutes
	system time =       0.11 seconds =       0.00 minutes
	total time  =         11 seconds =       0.18 minutes

Singlet-Triplet gap (vertical, UHF)   =     3.98 eV

Singlet-Triplet gap (vertical, ROHF)  =     4.19 eV
	Nuclear repulsion energy..........................................PASSED
	Singlet benzene RHF energy........................................PASSED

*** PSI4 exiting successfully. Buy a developer a beer!
