
    -----------------------------------------------------------------------
          Psi4: An Open-Source Ab Initio Electronic Structure Package
                               Psi4 1.6a1.dev179 

                         Git: Rev {linK-new} ee22594 dirty


    D. G. A. Smith, L. A. Burns, A. C. Simmonett, R. M. Parrish,
    M. C. Schieber, R. Galvelis, P. Kraus, H. Kruse, R. Di Remigio,
    A. Alenaizan, A. M. James, S. Lehtola, J. P. Misiewicz, M. Scheurer,
    R. A. Shaw, J. B. Schriber, Y. Xie, Z. L. Glick, D. A. Sirianni,
    J. S. O'Brien, J. M. Waldrop, A. Kumar, E. G. Hohenstein,
    B. P. Pritchard, B. R. Brooks, H. F. Schaefer III, A. Yu. Sokolov,
    K. Patkowski, A. E. DePrince III, U. Bozkaya, R. A. King,
    F. A. Evangelista, J. M. Turney, T. D. Crawford, C. D. Sherrill,
    J. Chem. Phys. 152(18) 184108 (2020). https://doi.org/10.1063/5.0006002

                            Additional Code Authors
    E. T. Seidl, C. L. Janssen, E. F. Valeev, M. L. Leininger,
    J. F. Gonthier, R. M. Richard, H. R. McAlexander, M. Saitow, X. Wang,
    P. Verma, M. H. Lechner, and A. Jiang

             Previous Authors, Complete List of Code Contributors,
                       and Citations for Specific Modules
    https://github.com/psi4/psi4/blob/master/codemeta.json
    https://github.com/psi4/psi4/graphs/contributors
    http://psicode.org/psi4manual/master/introduction.html#citing-psifour

    -----------------------------------------------------------------------


    Psi4 started on: Wednesday, 23 March 2022 04:20PM

    Process ID: 18579
    Host:       ds4
    PSIDATADIR: /theoryfs2/ds/jiang/p4dev/psi4/objdir-caroline/stage/share/psi4
    Memory:     500.0 MiB
    Threads:    1
    
  ==> Input File <==

--------------------------------------------------------------------------
#! RHF Linear Exchange Algorithm test for water

ref_energy = -76.04125669409474 # TEST (Compare to CSAM Screening, without LinK)

molecule mol {
    0 1
    O
    H 1 0.96
    H 1 0.96 2 104.5
    symmetry c1
    no_reorient
    no_com
}

set {
    scf_type direct
    df_scf_guess false
    basis aug-cc-pVDZ
    e_convergence 1.0e-10
    screening density
    incfock true
    incfock_full_fock_every 4
    do_linK true
    ints_tolerance 1.0e-12
    linK_ints_tolerance 1.0e-12
}

linK_energy = energy('scf')
psi4.compare_values(ref_energy, linK_energy, 9, "HF Energy (Using LinK algo)")
--------------------------------------------------------------------------

Scratch directory: /scratch/jiang/

*** tstart() called on ds4
*** at Wed Mar 23 16:20:23 2022

   => Loading Basis Set <=

    Name: AUG-CC-PVDZ
    Role: ORBITAL
    Keyword: BASIS
    atoms 1   entry O          line   254 file /theoryfs2/ds/jiang/p4dev/psi4/objdir-caroline/stage/share/psi4/basis/aug-cc-pvdz.gbs 
    atoms 2-3 entry H          line    40 file /theoryfs2/ds/jiang/p4dev/psi4/objdir-caroline/stage/share/psi4/basis/aug-cc-pvdz.gbs 


         ---------------------------------------------------------
                                   SCF
               by Justin Turney, Rob Parrish, Andy Simmonett
                          and Daniel G. A. Smith
                              RHF Reference
                        1 Threads,    500 MiB Core
         ---------------------------------------------------------

  ==> Geometry <==

    Molecular point group: c1
    Full point group: C2v

    Geometry (in Angstrom), charge = 0, multiplicity = 1:

       Center              X                  Y                   Z               Mass       
    ------------   -----------------  -----------------  -----------------  -----------------
         O            0.000000000000     0.000000000000    -0.065775570547    15.994914619570
         H            0.000000000000    -0.759061990794     0.521953018286     1.007825032230
         H            0.000000000000     0.759061990794     0.521953018286     1.007825032230

  Running in c1 symmetry.

  Rotational constants: A =     27.26297  B =     14.51533  C =      9.47217 [cm^-1]
  Rotational constants: A = 817323.21126  B = 435158.60141  C = 283968.37536 [MHz]
  Nuclear repulsion =    9.168193296424347

  Charge       = 0
  Multiplicity = 1
  Electrons    = 10
  Nalpha       = 5
  Nbeta        = 5

  ==> Algorithm <==

  SCF Algorithm Type is DIRECT.
  DIIS enabled.
  MOM disabled.
  Fractional occupation disabled.
  Guess Type is SAD.
  Energy threshold   = 1.00e-10
  Density threshold  = 1.00e-06
  Integral threshold = 1.00e-12

  ==> Primary Basis <==

  Basis Set: AUG-CC-PVDZ
    Blend: AUG-CC-PVDZ
    Number of shells: 19
    Number of basis functions: 41
    Number of Cartesian functions: 43
    Spherical Harmonics?: true
    Max angular momentum: 2

  ==> Integral Setup <==

  ==> DirectJK: Integral-Direct J/K Matrices <==

    J tasked:                  Yes
    K tasked:                  Yes
    wK tasked:                  No
    Integrals threads:           1
    Screening Type:        DENSITY
    Screening Cutoff:        1E-12
    Incremental Fock:          Yes
    LinK:                      Yes

    WARNING: LinK is still under development and should not be used!

  Minimum eigenvalue in the overlap matrix is 2.6921161277E-03.
  Reciprocal condition number of the overlap matrix is 4.7404748701E-04.
    Using symmetric orthogonalization.

  ==> Pre-Iterations <==

  SCF Guess: Superposition of Atomic Densities via on-the-fly atomic UHF (no occupation information).

   -------------------------
    Irrep   Nso     Nmo    
   -------------------------
     A         41      41 
   -------------------------
    Total      41      41
   -------------------------

  ==> Iterations <==

                        Total Energy        Delta E     RMS |[F,P]|

   @RHF iter SAD:   -75.46291161737808   -7.54629e+01   0.00000e+00 
   @RHF iter   1:   -75.95704831424511   -4.94137e-01   1.10492e-02 DIIS/ADIIS/LINK
   @RHF iter   2:   -76.01021534699385   -5.31670e-02   7.21652e-03 DIIS/ADIIS/INCFOCK/LINK
   @RHF iter   3:   -76.04080194389142   -3.05866e-02   5.96842e-04 DIIS/ADIIS/INCFOCK/LINK
   @RHF iter   4:   -76.04123361934545   -4.31675e-04   1.15260e-04 DIIS/ADIIS/INCFOCK/LINK
   @RHF iter   5:   -76.04125489053108   -2.12712e-05   2.64789e-05 DIIS/LINK
   @RHF iter   6:   -76.04125661907941   -1.72855e-06   5.29809e-06 DIIS/INCFOCK/LINK
   @RHF iter   7:   -76.04125669223099   -7.31516e-08   8.73936e-07 DIIS/INCFOCK/LINK
   @RHF iter   8:   -76.04125669405559   -1.82460e-09   1.36290e-07 DIIS/LINK
   @RHF iter   9:   -76.04125669409474   -3.91509e-11   3.55366e-08 DIIS/LINK
  Energy and wave function converged.


  ==> Post-Iterations <==

    Orbital Energies [Eh]
    ---------------------

    Doubly Occupied:                                                      

       1A    -20.577732     2A     -1.355219     3A     -0.717755  
       4A     -0.585137     5A     -0.509216  

    Virtual:                                                              

       6A      0.035389     7A      0.057915     8A      0.174039  
       9A      0.196812    10A      0.222451    11A      0.231524  
      12A      0.290014    13A      0.331105    14A      0.385606  
      15A      0.403674    16A      0.433391    17A      0.538813  
      18A      0.647949    19A      0.658101    20A      0.810556  
      21A      0.928975    22A      1.101245    23A      1.115396  
      24A      1.148646    25A      1.306873    26A      1.466248  
      27A      1.482349    28A      1.582936    29A      2.001553  
      30A      2.009988    31A      2.107335    32A      2.367041  
      33A      2.477342    34A      2.622364    35A      2.714255  
      36A      2.965894    37A      3.672864    38A      3.689787  
      39A      3.702442    40A      4.023743    41A      4.303268  

    Final Occupation by Irrep:
              A 
    DOCC [     5 ]

  @RHF Final Energy:   -76.04125669409474

   => Energetics <=

    Nuclear Repulsion Energy =              9.1681932964243469
    One-Electron Energy =                -122.9287781762823215
    Two-Electron Energy =                  37.7193281857632243
    Total Energy =                        -76.0412566940947556

Computation Completed


Properties will be evaluated at   0.000000,   0.000000,   0.000000 [a0]

Properties computed using the SCF density matrix

  Nuclear Dipole Moment: [e a0]
     X:     0.0000      Y:     0.0000      Z:     0.9783

  Electronic Dipole Moment: [e a0]
     X:     0.0000      Y:    -0.0000      Z:    -0.1910

  Dipole Moment: [e a0]
     X:     0.0000      Y:    -0.0000      Z:     0.7873     Total:     0.7873

  Dipole Moment: [D]
     X:     0.0000      Y:    -0.0000      Z:     2.0011     Total:     2.0011


*** tstop() called on ds4 at Wed Mar 23 16:20:25 2022
Module time:
	user time   =       1.26 seconds =       0.02 minutes
	system time =       0.06 seconds =       0.00 minutes
	total time  =          2 seconds =       0.03 minutes
Total time:
	user time   =       1.26 seconds =       0.02 minutes
	system time =       0.06 seconds =       0.00 minutes
	total time  =          2 seconds =       0.03 minutes
    HF Energy (Using LinK algo)...........................................................PASSED

    Psi4 stopped on: Wednesday, 23 March 2022 04:20PM
    Psi4 wall time for execution: 0:00:01.74

*** Psi4 exiting successfully. Buy a developer a beer!
