
    -----------------------------------------------------------------------
          Psi4: An Open-Source Ab Initio Electronic Structure Package
                               Psi4 1.7a1.dev131 

                         Git: Rev {dpoole34/dfjlink} 548ccaa dirty


    D. G. A. Smith, L. A. Burns, A. C. Simmonett, R. M. Parrish,
    M. C. Schieber, R. Galvelis, P. Kraus, H. Kruse, R. Di Remigio,
    A. Alenaizan, A. M. James, S. Lehtola, J. P. Misiewicz, M. Scheurer,
    R. A. Shaw, J. B. Schriber, Y. Xie, Z. L. Glick, D. A. Sirianni,
    J. S. O'Brien, J. M. Waldrop, A. Kumar, E. G. Hohenstein,
    B. P. Pritchard, B. R. Brooks, H. F. Schaefer III, A. Yu. Sokolov,
    K. Patkowski, A. E. DePrince III, U. Bozkaya, R. A. King,
    F. A. Evangelista, J. M. Turney, T. D. Crawford, C. D. Sherrill,
    J. Chem. Phys. 152(18) 184108 (2020). https://doi.org/10.1063/5.0006002

                            Additional Code Authors
    E. T. Seidl, C. L. Janssen, E. F. Valeev, M. L. Leininger,
    J. F. Gonthier, R. M. Richard, H. R. McAlexander, M. Saitow, X. Wang,
    P. Verma, M. H. Lechner, and A. Jiang

             Previous Authors, Complete List of Code Contributors,
                       and Citations for Specific Modules
    https://github.com/psi4/psi4/blob/master/codemeta.json
    https://github.com/psi4/psi4/graphs/contributors
    http://psicode.org/psi4manual/master/introduction.html#citing-psifour

    -----------------------------------------------------------------------


    Psi4 started on: Thursday, 03 November 2022 10:09AM

    Process ID: 12981
    Host:       ds6
    PSIDATADIR: /theoryfs2/ds/dpoole34/Documents/Codes/psi4-compositejk-dfjlink/psi4-install/share/psi4
    Memory:     500.0 MiB
    Threads:    1
    
  ==> Input File <==

--------------------------------------------------------------------------
#! RHF Linear Exchange Algorithm test for water

ref_energy = -76.0412801462671837 # TEST, compared to previously-devleoped DDFJ+LinK impl 

molecule mol {
    0 1
    O
    H 1 0.96
    H 1 0.96 2 104.5
    symmetry c1
    no_reorient
    no_com
}

set {
    scf_type link 
    df_scf_guess false
    basis aug-cc-pVDZ
    e_convergence 1.0e-10
    screening density
    incfock true
    incfock_full_fock_every 4
    ints_tolerance 1.0e-12
    linK_ints_tolerance 1.0e-12
}

linK_energy = energy('scf')
psi4.compare_values(ref_energy, linK_energy, 9, "HF Energy (Using LinK algo)")
--------------------------------------------------------------------------

Scratch directory: /scratch/dpoole34/

*** tstart() called on ds6
*** at Thu Nov  3 10:09:37 2022

   => Loading Basis Set <=

    Name: AUG-CC-PVDZ
    Role: ORBITAL
    Keyword: BASIS
    atoms 1   entry O          line   254 file /theoryfs2/ds/dpoole34/Documents/Codes/psi4-compositejk-dfjlink/psi4-install/share/psi4/basis/aug-cc-pvdz.gbs 
    atoms 2-3 entry H          line    40 file /theoryfs2/ds/dpoole34/Documents/Codes/psi4-compositejk-dfjlink/psi4-install/share/psi4/basis/aug-cc-pvdz.gbs 


         ---------------------------------------------------------
                                   SCF
               by Justin Turney, Rob Parrish, Andy Simmonett
                          and Daniel G. A. Smith
                              RHF Reference
                        1 Threads,    500 MiB Core
         ---------------------------------------------------------

  ==> Geometry <==

    Molecular point group: c1
    Full point group: C2v

    Geometry (in Angstrom), charge = 0, multiplicity = 1:

       Center              X                  Y                   Z               Mass       
    ------------   -----------------  -----------------  -----------------  -----------------
         O            0.000000000000     0.000000000000    -0.065775570547    15.994914619570
         H            0.000000000000    -0.759061990794     0.521953018286     1.007825032230
         H            0.000000000000     0.759061990794     0.521953018286     1.007825032230

  Running in c1 symmetry.

  Rotational constants: A =     27.26297  B =     14.51533  C =      9.47217 [cm^-1]
  Rotational constants: A = 817323.21126  B = 435158.60141  C = 283968.37536 [MHz]
  Nuclear repulsion =    9.168193296424347

  Charge       = 0
  Multiplicity = 1
  Electrons    = 10
  Nalpha       = 5
  Nbeta        = 5

  ==> Algorithm <==

  SCF Algorithm Type is LINK.
  DIIS enabled.
  MOM disabled.
  Fractional occupation disabled.
  Guess Type is SAD.
  Energy threshold   = 1.00e-10
  Density threshold  = 1.00e-06
  Integral threshold = 1.00e-12

  ==> Primary Basis <==

  Basis Set: AUG-CC-PVDZ
    Blend: AUG-CC-PVDZ
    Number of shells: 19
    Number of basis functions: 41
    Number of Cartesian functions: 43
    Spherical Harmonics?: true
    Max angular momentum: 2

   => Loading Basis Set <=

    Name: (AUG-CC-PVDZ AUX)
    Role: JKFIT
    Keyword: DF_BASIS_SCF
    atoms 1   entry O          line   270 file /theoryfs2/ds/dpoole34/Documents/Codes/psi4-compositejk-dfjlink/psi4-install/share/psi4/basis/aug-cc-pvdz-jkfit.gbs 
    atoms 2-3 entry H          line    70 file /theoryfs2/ds/dpoole34/Documents/Codes/psi4-compositejk-dfjlink/psi4-install/share/psi4/basis/aug-cc-pvdz-jkfit.gbs 

  ==> Integral Setup <==

  ==> DFJLinK: Density-Fitted J and Linear Exchange K <==

    J tasked:                  Yes
    K tasked:                  Yes
    wK tasked:                  No
    Integrals threads:           1
    Memory [MiB]:              375
    Incremental Fock:          Yes
    Screening Type:        DENSITY
    J Screening Cutoff:      1E-12
    K Screening Cutoff:      1E-12
  Minimum eigenvalue in the overlap matrix is 2.6921161277E-03.
  Reciprocal condition number of the overlap matrix is 4.7404748701E-04.
    Using symmetric orthogonalization.

  ==> Pre-Iterations <==

  SCF Guess: Superposition of Atomic Densities via on-the-fly atomic UHF (no occupation information).

   -------------------------
    Irrep   Nso     Nmo    
   -------------------------
     A         41      41 
   -------------------------
    Total      41      41
   -------------------------

  ==> Iterations <==

                        Total Energy        Delta E     RMS |[F,P]|

   @RHF iter SAD:   -75.46292057966335   -7.54629e+01   0.00000e+00 
   @RHF iter   1:   -75.95706790673900   -4.94147e-01   1.10494e-02 DIIS/ADIIS
   @RHF iter   2:   -76.01023900550949   -5.31711e-02   7.21646e-03 DIIS/ADIIS/INCFOCK
   @RHF iter   3:   -76.04082523355370   -3.05862e-02   5.96971e-04 DIIS/ADIIS/INCFOCK
   @RHF iter   4:   -76.04125706617815   -4.31833e-04   1.15277e-04 DIIS/ADIIS/INCFOCK
   @RHF iter   5:   -76.04127834315877   -2.12770e-05   2.64765e-05 DIIS
   @RHF iter   6:   -76.04128007126917   -1.72811e-06   5.29777e-06 DIIS/INCFOCK
   @RHF iter   7:   -76.04128014440289   -7.31337e-08   8.74064e-07 DIIS
   @RHF iter   8:   -76.04128014622796   -1.82507e-09   1.36286e-07 DIIS
   @RHF iter   9:   -76.04128014626698   -3.90230e-11   3.55383e-08 DIIS
  Energy and wave function converged.


  ==> Post-Iterations <==

    Orbital Energies [Eh]
    ---------------------

    Doubly Occupied:                                                      

       1A    -20.577718     2A     -1.355217     3A     -0.717760  
       4A     -0.585142     5A     -0.509216  

    Virtual:                                                              

       6A      0.035408     7A      0.057949     8A      0.174062  
       9A      0.196818    10A      0.222473    11A      0.231575  
      12A      0.290032    13A      0.331122    14A      0.385605  
      15A      0.403691    16A      0.433388    17A      0.538845  
      18A      0.647888    19A      0.658078    20A      0.810540  
      21A      0.928978    22A      1.101246    23A      1.115496  
      24A      1.148688    25A      1.306903    26A      1.466234  
      27A      1.482398    28A      1.582991    29A      2.001503  
      30A      2.009945    31A      2.107278    32A      2.366935  
      33A      2.477386    34A      2.622447    35A      2.714199  
      36A      2.965914    37A      3.672844    38A      3.689962  
      39A      3.702470    40A      4.023721    41A      4.303026  

    Final Occupation by Irrep:
              A 
    DOCC [     5 ]
    NA   [     5 ]
    NB   [     5 ]

  @RHF Final Energy:   -76.04128014626698

   => Energetics <=

    Nuclear Repulsion Energy =              9.1681932964243469
    One-Electron Energy =                -122.9288405129471755
    Two-Electron Energy =                  37.7193670702558350
    Total Energy =                        -76.0412801462669847

Computation Completed


Properties will be evaluated at   0.000000,   0.000000,   0.000000 [a0]

Properties computed using the SCF density matrix


 Multipole Moments:

 ------------------------------------------------------------------------------------
     Multipole            Electronic (a.u.)      Nuclear  (a.u.)        Total (a.u.)
 ------------------------------------------------------------------------------------

 L = 1.  Multiply by 2.5417464519 to convert [e a0] to [Debye]
 Dipole X            :          0.0000000            0.0000000            0.0000000
 Dipole Y            :          0.0000000            0.0000000            0.0000000
 Dipole Z            :         -0.1910544            0.9783140            0.7872596
 Magnitude           :                                                    0.7872596

 ------------------------------------------------------------------------------------

*** tstop() called on ds6 at Thu Nov  3 10:09:38 2022
Module time:
	user time   =       0.87 seconds =       0.01 minutes
	system time =       0.06 seconds =       0.00 minutes
	total time  =          1 seconds =       0.02 minutes
Total time:
	user time   =       0.87 seconds =       0.01 minutes
	system time =       0.06 seconds =       0.00 minutes
	total time  =          1 seconds =       0.02 minutes
    HF Energy (Using LinK algo)...........................................................PASSED

    Psi4 stopped on: Thursday, 03 November 2022 10:09AM
    Psi4 wall time for execution: 0:00:01.14

*** Psi4 exiting successfully. Buy a developer a beer!
