    -----------------------------------------------------------------------
          Psi4: An Open-Source Ab Initio Electronic Structure Package
                              Psi4 0.2.90 Driver

                          Git: Rev {master} 1a5af8f dirty

    J. M. Turney, A. C. Simmonett, R. M. Parrish, E. G. Hohenstein,
    F. A. Evangelista, J. T. Fermann, B. J. Mintz, L. A. Burns, J. J. Wilke,
    M. L. Abrams, N. J. Russ, M. L. Leininger, C. L. Janssen, E. T. Seidl,
    W. D. Allen, H. F. Schaefer, R. A. King, E. F. Valeev, C. D. Sherrill,
    and T. D. Crawford, WIREs Comput. Mol. Sci. 2, 556-565 (2012)
    (doi: 10.1002/wcms.93)

                         Additional Contributions by
    A. E. DePrince, M. Saitow, U. Bozkaya, A. Yu. Sokolov
    -----------------------------------------------------------------------


    Psi4 started on: Wed Jul 15 16:17:12 2015

    Process ID:  30416
    PSI4DATADIR: /Users/francesco/Source/psi4/lib
    Memory level set to 256.000 MB

  ==> Input File <==

--------------------------------------------------------------------------
molecule h2o {
0 1
O
H 1 1.0
H 1 1.0 2 104.5
}

set basis cc-pvqz
set cubeprop_tasks ['orbitals','density']
set cubeprop_orbitals [1,2,3,4,5]
set cubic_grid_overage [1.0,1.0,1.0]

energy('scf')
cubeprop()

def compare_cubes(expected, computed, label):
    """Function to compare two cube files. Prints :py:func:`util.success`
    when value *computed* matches value *expected*.
    Performs a system exit on failure. Used in input files in the test suite.

    """
    evec = [float(k) for k in expected.split()[6:]]
    cvec = [float(k) for k in computed.split()[6:]]
    if len(evec) == len(cvec):
        for n in xrange(len(evec)):
            if (math.fabs(evec[n]-cvec[n]) > 1.0e-5): 
                print("\t%s: computed cube file does not match expected cube file." % label)
                sys.exit(1)
    else:
        print("\t%s: computed cube file does not match expected cube file." % (label, computed, expected))
        sys.exit(1)
    success(label)

for n in [1,2,3,4,5]:
    ref_cube = open('Psi_a_%d.cube.ref' % n,'r').read()
    this_cube = open('Psi_a_%d.cube' % n,'r').read()
    compare_cubes(ref_cube,this_cube,"Comparing MO %d" % n)

for s in ['Da','Db','Dt','Ds']:
    ref_cube = open('%s.cube.ref' % s,'r').read()
    this_cube = open('%s.cube' % s,'r').read()
    compare_cubes(ref_cube,this_cube,"Comparing %s" % s)
--------------------------------------------------------------------------

*** tstart() called on che-fevange-01i
*** at Wed Jul 15 16:17:12 2015


         ---------------------------------------------------------
                                   SCF
            by Justin Turney, Rob Parrish, and Andy Simmonett
                              RHF Reference
                        1 Threads,    256 MiB Core
         ---------------------------------------------------------

  ==> Geometry <==

    Molecular point group: c2v
    Full point group: C2v

    Geometry (in Angstrom), charge = 0, multiplicity = 1:

       Center              X                  Y                   Z       
    ------------   -----------------  -----------------  -----------------
           O          0.000000000000     0.000000000000    -0.068516219310
           H          0.000000000000    -0.790689573744     0.543701060724
           H          0.000000000000     0.790689573744     0.543701060724

  Running in c2v symmetry.

  Rotational constants: A =     25.12555  B =     13.37733  C =      8.72955 [cm^-1]
  Rotational constants: A = 753245.06586  B = 401042.16407  C = 261705.25278 [MHz]
  Nuclear repulsion =    8.801465529972067

  Charge       = 0
  Multiplicity = 1
  Electrons    = 10
  Nalpha       = 5
  Nbeta        = 5

  ==> Algorithm <==

  SCF Algorithm Type is DF.
  DIIS enabled.
  MOM disabled.
  Fractional occupation disabled.
  Guess Type is CORE.
  Energy threshold   = 1.00e-06
  Density threshold  = 1.00e-06
  Integral threshold = 0.00e+00

  ==> Primary Basis <==

  Basis Set: CC-PVQZ
    Number of shells: 35
    Number of basis function: 115
    Number of Cartesian functions: 140
    Spherical Harmonics?: true
    Max angular momentum: 4

  ==> Pre-Iterations <==

   -------------------------------------------------------
    Irrep   Nso     Nmo     Nalpha   Nbeta   Ndocc  Nsocc
   -------------------------------------------------------
     A1        42      42       0       0       0       0
     A2        17      17       0       0       0       0
     B1        23      23       0       0       0       0
     B2        33      33       0       0       0       0
   -------------------------------------------------------
    Total     115     115       5       5       5       0
   -------------------------------------------------------

 OEINTS: Overlap, kinetic, potential, dipole, and quadrupole integrals
         stored in file 35.

  ==> Integral Setup <==

  ==> DFJK: Density-Fitted J/K Matrices <==

    J tasked:                  Yes
    K tasked:                  Yes
    wK tasked:                  No
    OpenMP threads:              1
    Integrals threads:           1
    Memory (MB):               183
    Algorithm:                Core
    Integral Cache:           NONE
    Schwarz Cutoff:          1E-12
    Fitting Condition:       1E-12

   => Auxiliary Basis Set <=

  Basis Set: 
    Number of shells: 54
    Number of basis function: 208
    Number of Cartesian functions: 274
    Spherical Harmonics?: true
    Max angular momentum: 5

  Minimum eigenvalue in the overlap matrix is 5.0902308820E-04.
  Using Symmetric Orthogonalization.
  SCF Guess: Core (One-Electron) Hamiltonian.

  ==> Iterations <==

                           Total Energy        Delta E     RMS |[F,P]|

    Occupation by irrep:
             A1    A2    B1    B2 
    DOCC [     3,    0,    0,    2 ]

   @DF-RHF iter   1:   -59.99892581891153   -5.99989e+01   1.67123e-01 
    Occupation by irrep:
             A1    A2    B1    B2 
    DOCC [     3,    0,    1,    1 ]

   @DF-RHF iter   2:   -65.85960663654215   -5.86068e+00   5.12074e-02 DIIS
   @DF-RHF iter   3:   -72.82281345095585   -6.96321e+00   5.52953e-02 DIIS
   @DF-RHF iter   4:   -75.45691380235652   -2.63410e+00   2.11424e-02 DIIS
   @DF-RHF iter   5:   -76.04537464779770   -5.88461e-01   2.38694e-03 DIIS
   @DF-RHF iter   6:   -76.05789765609227   -1.25230e-02   7.05622e-04 DIIS
   @DF-RHF iter   7:   -76.05847691443422   -5.79258e-04   1.43509e-04 DIIS
   @DF-RHF iter   8:   -76.05851280929468   -3.58949e-05   1.71901e-05 DIIS
   @DF-RHF iter   9:   -76.05851440381592   -1.59452e-06   5.17250e-06 DIIS
   @DF-RHF iter  10:   -76.05851450722749   -1.03412e-07   8.88043e-07 DIIS

  ==> Post-Iterations <==

    Orbital Energies (a.u.)
    -----------------------

    Doubly Occupied:                                                      

       1A1   -20.567040     2A1    -1.328480     1B2    -0.691521  
       3A1    -0.573764     1B1    -0.504847  

    Virtual:                                                              

       4A1     0.113372     2B2     0.168249     3B2     0.436971  
       5A1     0.463767     6A1     0.485950     2B1     0.584151  
       7A1     0.599988     4B2     0.609941     1A2     0.651068  
       3B1     0.715001     8A1     0.856376     5B2     0.905774  
       9A1     1.090280     6B2     1.134388     7B2     1.356626  
      10A1     1.417925     4B1     1.474361     2A2     1.484792  
      11A1     1.585243    12A1     1.674547     8B2     1.904712  
       5B1     2.066373    13A1     2.181674     3A2     2.280837  
       9B2     2.348131     6B1     2.418546    14A1     2.467412  
      10B2     2.512938     4A2     2.553424     7B1     2.559450  
      11B2     2.627397    15A1     2.658215     5A2     2.816722  
      16A1     2.842881     8B1     3.046099    12B2     3.090457  
      13B2     3.248695    17A1     3.360578    18A1     3.379300  
      14B2     3.578617    19A1     3.857204     9B1     3.948687  
       6A2     4.149725    10B1     4.215795    20A1     4.237705  
      15B2     4.407996    21A1     4.494821    22A1     4.552679  
      11B1     4.647386    16B2     4.809864     7A2     4.816348  
      17B2     5.273686    23A1     5.352048    12B1     5.991634  
      24A1     6.072248     8A2     6.201555    18B2     6.253255  
       9A2     6.570141    25A1     6.710244    19B2     6.952430  
      20B2     7.179776    13B1     7.244159    14B1     7.329010  
      10A2     7.419266    26A1     7.429325    21B2     7.455002  
      27A1     7.568595    22B2     7.984302    15B1     8.037737  
      28A1     8.085898    16B1     8.102734    11A2     8.191331  
      29A1     8.227092    23B2     8.247579    12A2     8.313928  
      30A1     8.401406    24B2     8.554708    17B1     8.740051  
      13A2     8.755909    31A1     8.832919    25B2     9.061614  
      32A1     9.186760    26B2     9.263819    33A1    10.054917  
      18B1    10.135487    27B2    10.186667    34A1    10.377854  
      19B1    10.580245    14A2    10.635382    35A1    10.677424  
      28B2    11.114975    15A2    11.284919    36A1    11.516656  
      20B1    11.623005    29B2    11.625126    21B1    11.852782  
      37A1    11.971210    22B1    12.163854    38A1    12.258899  
      16A2    12.297237    30B2    12.427042    31B2    13.377336  
      39A1    13.426888    23B1    13.988476    17A2    14.321402  
      40A1    14.368405    32B2    14.422791    41A1    16.151469  
      33B2    16.513939    42A1    43.886498  

    Final Occupation by Irrep:
             A1    A2    B1    B2 
    DOCC [     3,    0,    1,    1 ]

  Energy converged.

  @DF-RHF Final Energy:   -76.05851450722749

   => Energetics <=

    Nuclear Repulsion Energy =              8.8014655299720665
    One-Electron Energy =                -122.3888305260711888
    Two-Electron Energy =                  37.5288504888716403
    DFT Exchange-Correlation Energy =       0.0000000000000000
    Empirical Dispersion Energy =           0.0000000000000000
    PCM Polarization Energy =               0.0000000000000000
    EFP Energy =                            0.0000000000000000
    Total Energy =                        -76.0585145072274855

    Alert: EFP and PCM quantities not currently incorporated into SCF psivars.

Properties will be evaluated at   0.000000,   0.000000,   0.000000 Bohr
  ==> Properties <==


Properties computed using the SCF density matrix

  Nuclear Dipole Moment: (a.u.)
     X:     0.0000      Y:     0.0000      Z:     1.0191

  Electronic Dipole Moment: (a.u.)
     X:     0.0000      Y:     0.0000      Z:    -0.2160

  Dipole Moment: (a.u.)
     X:     0.0000      Y:     0.0000      Z:     0.8031     Total:     0.8031

  Dipole Moment: (Debye)
     X:     0.0000      Y:     0.0000      Z:     2.0412     Total:     2.0412


  Saving occupied orbitals to File 180.

*** tstop() called on che-fevange-01i at Wed Jul 15 16:17:14 2015
Module time:
	user time   =       1.10 seconds =       0.02 minutes
	system time =       0.06 seconds =       0.00 minutes
	total time  =          2 seconds =       0.03 minutes
Total time:
	user time   =       1.10 seconds =       0.02 minutes
	system time =       0.06 seconds =       0.00 minutes
	total time  =          2 seconds =       0.03 minutes
  ==> One Electron Grid Properties (v2.0) <==

  ==> CubicScalarGrid <==

    Filepath     = .
    Total Points =             4862
    XYZ Blocking =                9
    X Points     =               11
    Y Points     =               26
    Z Points     =               17
    X Spacing    =        2.000E-01
    Y Spacing    =        2.000E-01
    Z Spacing    =        2.000E-01
    X Minimum    =       -1.000E+00
    Y Minimum    =       -2.500E+00
    Z Minimum    =       -1.151E+00
    X Maximum    =        1.000E+00
    Y Maximum    =        2.500E+00
    Z Maximum    =        2.049E+00


*** PSI4 exiting successfully. Buy a developer a beer!
