    -----------------------------------------------------------------------
          Psi4: An Open-Source Ab Initio Electronic Structure Package
                              Psi4 0.5 Driver

                          Git: Rev {master} dbe9080

    J. M. Turney, A. C. Simmonett, R. M. Parrish, E. G. Hohenstein,
    F. A. Evangelista, J. T. Fermann, B. J. Mintz, L. A. Burns, J. J. Wilke,
    M. L. Abrams, N. J. Russ, M. L. Leininger, C. L. Janssen, E. T. Seidl,
    W. D. Allen, H. F. Schaefer, R. A. King, E. F. Valeev, C. D. Sherrill,
    and T. D. Crawford, WIREs Comput. Mol. Sci. 2, 556-565 (2012)
    (doi: 10.1002/wcms.93)

                         Additional Contributions by
    A. E. DePrince, M. Saitow, U. Bozkaya, A. Yu. Sokolov
    -----------------------------------------------------------------------


    Psi4 started on: Mon Mar 14 15:28:55 2016

    Process ID:  12961
    PSI4DATADIR: /home/dsmith/Gits/dgas_psi/share
    Memory level set to 256.000 MB

  ==> Input File <==

--------------------------------------------------------------------------
#! SCF DZ finite difference frequencies by energies for C4NH4

memory 250 mb

molecule c4nh4 {
  units angstrom
  -1 1
    C         0.000000000000     0.000000000000     1.119905811674
    N         0.000000000000     0.000000000000     2.310087277449
    C         0.000000000000     0.000000000000    -0.231085072523
    C        -0.781617287494     0.000000000000    -1.483869398827
    C         0.781617287494     0.000000000000    -1.483869398827
    H        -1.274488047821    -0.899961499592    -1.835960153318
    H        -1.274488047821     0.899961499592    -1.835960153318
    H         1.274488047821     0.899961499592    -1.835960153318
    H         1.274488047821    -0.899961499592    -1.835960153318
}

#These are the old reference values
## Test against analytic second derivatives from PSI3 (for now).
#anal_freqs.set(0, 0,  -184.0613)
#anal_freqs.set(0, 1,   236.5665)
#anal_freqs.set(0, 2,   601.8179)
#anal_freqs.set(0, 3,   663.5969)
#anal_freqs.set(0, 4,   667.0854)
#anal_freqs.set(0, 5,   895.5586)
#anal_freqs.set(0, 6,  1008.6894)
#anal_freqs.set(0, 7,  1008.9522)
#anal_freqs.set(0, 8,  1046.9718)
#anal_freqs.set(0, 9,  1160.1266)
#anal_freqs.set(0,10,  1161.1594)
#anal_freqs.set(0,11,  1215.7027)
#anal_freqs.set(0,12,  1225.2493)
#anal_freqs.set(0,13,  1600.6695)
#anal_freqs.set(0,14,  1622.1779)
#anal_freqs.set(0,15,  1673.4861)
#anal_freqs.set(0,16,  2239.4185)
#anal_freqs.set(0,17,  3171.5147)
#anal_freqs.set(0,18,  3182.4027)
#anal_freqs.set(0,20,  3244.2997)

#These are the new reference values, they are the finite difference results
ref_freqs = psi4.Vector(21)
ref_freqs.set(0, 0, -185.3806810)
ref_freqs.set(0, 1,  236.6736194)
ref_freqs.set(0, 2,  600.8861278)
ref_freqs.set(0, 3,  663.7373907)
ref_freqs.set(0, 4,  667.1277034)
ref_freqs.set(0, 5,  895.6058773)
ref_freqs.set(0, 6, 1009.3357983)
ref_freqs.set(0, 7,  1008.9476251)
ref_freqs.set(0, 8,  1047.0252516)
ref_freqs.set(0, 9, 1160.0942687)
ref_freqs.set(0,10,  1161.2390978)
ref_freqs.set(0,11,  1215.7764819)
ref_freqs.set(0,12, 1225.2606141)
ref_freqs.set(0,13,  1600.7766133)
ref_freqs.set(0,14,  1622.1707093)
ref_freqs.set(0,15,  1673.4406189)
ref_freqs.set(0,16,  2239.3784603)
ref_freqs.set(0,17,  3171.4980225)
ref_freqs.set(0,18,  3182.3588200)
ref_freqs.set(0,19, 3224.6209621)
ref_freqs.set(0,20, 3244.2534858)


a1_freqs = psi4.Vector(7)
a1_freqs.set(0, 0, ref_freqs[ 4])
a1_freqs.set(0, 1, ref_freqs[ 7])
a1_freqs.set(0, 2, ref_freqs[10])
a1_freqs.set(0, 3, ref_freqs[13])
a1_freqs.set(0, 4, ref_freqs[15])
a1_freqs.set(0, 5, ref_freqs[16])
a1_freqs.set(0, 6, ref_freqs[18])

a2_freqs = psi4.Vector(3)
a2_freqs.set(0, 0, ref_freqs[6])
a2_freqs.set(0, 1, ref_freqs[12])
a2_freqs.set(0, 2, ref_freqs[19])

b1_freqs = psi4.Vector(6)
b1_freqs.set(0, 0, ref_freqs[1])
b1_freqs.set(0, 1, ref_freqs[3])
b1_freqs.set(0, 2, ref_freqs[8])
b1_freqs.set(0, 3, ref_freqs[11])
b1_freqs.set(0, 4, ref_freqs[14])
b1_freqs.set(0, 5, ref_freqs[17])

b2_freqs = psi4.Vector(5)
b2_freqs.set(0, 0, ref_freqs[0])
b2_freqs.set(0, 1, ref_freqs[2])
b2_freqs.set(0, 2, ref_freqs[5])
b2_freqs.set(0, 3, ref_freqs[9])
b2_freqs.set(0, 4, ref_freqs[20])


# *** Test all frequencies by 3-pt formula.
set globals {
  basis dz
  d_convergence 11
  points 3
}

set findif {print 3}

scf_e, scf_wfn = frequencies('scf',dertype=0,irrep=2, return_wfn=True)
fd_freqs = scf_wfn.frequencies()
clean()

compare_vectors(a2_freqs, fd_freqs, 0, "Finite-difference frequencies with 3-pt. formula to 1 cm^-1")
del fd_freqs

# *** Test frequencies by 5-pt formula for A1 irrep only.
molecule c4nh4 {
  units angstrom
  -1 1
    C         0.000000000000     0.000000000000     1.119905811674
    N         0.000000000000     0.000000000000     2.310087277449
    C         0.000000000000     0.000000000000    -0.231085072523
    C        -0.781617287494     0.000000000000    -1.483869398827
    C         0.781617287494     0.000000000000    -1.483869398827
    H        -1.274488047821    -0.899961499592    -1.835960153318
    H        -1.274488047821     0.899961499592    -1.835960153318
    H         1.274488047821     0.899961499592    -1.835960153318
    H         1.274488047821    -0.899961499592    -1.835960153318
}

set globals {
 basis dz
 points 5
 d_convergence 11    # necessary for guaranteeing accuracy down to 0.001 cm^-1
 disp_size 0.010
}

scf_e, scf_wfn = frequencies('scf', irrep=1, return_wfn=True)
fd_freqs = scf_wfn.frequencies()
clean()

compare_vectors(a1_freqs, fd_freqs, 0, "A1 finite-diffence frequencies with 5-pt. formula to 1 cm^-1")
del fd_freqs

# *** Test frequencies by 3-pt formula for A2 irrep only.
molecule c4nh4 {
  units angstrom
  -1 1
    C         0.000000000000     0.000000000000     1.119905811674
    N         0.000000000000     0.000000000000     2.310087277449
    C         0.000000000000     0.000000000000    -0.231085072523
    C        -0.781617287494     0.000000000000    -1.483869398827
    C         0.781617287494     0.000000000000    -1.483869398827
    H        -1.274488047821    -0.899961499592    -1.835960153318
    H        -1.274488047821     0.899961499592    -1.835960153318
    H         1.274488047821     0.899961499592    -1.835960153318
    H         1.274488047821    -0.899961499592    -1.835960153318
}

set globals {
 basis dz
 points 5
 d_convergence 11    # necessary for guaranteeing accuracy down to 0.001 cm^-1
 disp_size 0.010
}

scf_e, scf_wfn = frequencies('scf', irrep=2, return_wfn=True)
fd_freqs = scf_wfn.frequencies()
clean()

compare_vectors(a2_freqs, fd_freqs, 0, "A2 finite-diffence frequencies with 5-pt. formula to 1 cm^-1")
del fd_freqs


# *** Test frequencies by 3-pt formula for B1 irrep only.
molecule c4nh4 {
  units angstrom
  -1 1
    C         0.000000000000     0.000000000000     1.119905811674
    N         0.000000000000     0.000000000000     2.310087277449
    C         0.000000000000     0.000000000000    -0.231085072523
    C        -0.781617287494     0.000000000000    -1.483869398827
    C         0.781617287494     0.000000000000    -1.483869398827
    H        -1.274488047821    -0.899961499592    -1.835960153318
    H        -1.274488047821     0.899961499592    -1.835960153318
    H         1.274488047821     0.899961499592    -1.835960153318
    H         1.274488047821    -0.899961499592    -1.835960153318
}

set globals {
 basis dz
 points 5
 d_convergence 11    # necessary for guaranteeing accuracy down to 0.001 cm^-1
 disp_size 0.010
}

scf_e, scf_wfn = frequencies('scf', irrep=3, return_wfn=True)
fd_freqs = scf_wfn.frequencies()
clean()

compare_vectors(b1_freqs, fd_freqs, 0, "B1 finite-diffence frequencies with 5-pt. formula to 1 cm^-1")
del fd_freqs


# *** Test frequencies by 3-pt formula for B2 irrep only.
molecule c4nh4 {
  units angstrom
  -1 1
    C         0.000000000000     0.000000000000     1.119905811674
    N         0.000000000000     0.000000000000     2.310087277449
    C         0.000000000000     0.000000000000    -0.231085072523
    C        -0.781617287494     0.000000000000    -1.483869398827
    C         0.781617287494     0.000000000000    -1.483869398827
    H        -1.274488047821    -0.899961499592    -1.835960153318
    H        -1.274488047821     0.899961499592    -1.835960153318
    H         1.274488047821     0.899961499592    -1.835960153318
    H         1.274488047821    -0.899961499592    -1.835960153318
}

set globals {
 basis dz
 points 5
 d_convergence 11    # necessary for guaranteeing accuracy down to 0.001 cm^-1
 disp_size 0.010
}

scf_e, scf_wfn = frequencies('scf', irrep=4, return_wfn=True)
fd_freqs = scf_wfn.frequencies()

compare_vectors(b2_freqs, fd_freqs, 0, "B2 finite-diffence frequencies with 5-pt. formula to 1 cm^-1")
del fd_freqs

del a1_freqs
del a2_freqs
del b1_freqs
del b2_freqs
del ref_freqs

--------------------------------------------------------------------------

  Memory set to 250.000 MiB by Python script.
hessian() will perform frequency computation by finite difference of analytic energies.

-------------------------------------------------------------

  Using finite-differences of energies to determine vibrational frequencies and 
  normal modes.  Resulting frequencies are only valid at stationary points.
	Generating geometries for use with 3-point formula.
	Displacement size will be 5.00e-03.
	Number of atoms is 9.
	Number of irreps is 4.
	Number of SALCS is 21.
	 Number of SALC's per irrep:
	  Irrep 1: 0
	  Irrep 2: 3
	  Irrep 3: 0
	  Irrep 4: 0
	Index of active salcs per irrep:
	  Irrep 2 :  7  8  9 
	Number of geometries (including reference) is 9.
	Number of displacements per irrep:
	  Irrep 1: 0
	  Irrep 2: 9
	  Irrep 3: 0
	  Irrep 4: 0
	irrep = 0, ncomponent = 9
		0: atom 0, direction z, coef 0.904586
		1: atom 1, direction z, coef -0.217011
		2: atom 2, direction z, coef -0.200891
		3: atom 3, direction z, coef -0.200891
		4: atom 4, direction z, coef -0.200891
		5: atom 5, direction z, coef -0.058219
		6: atom 6, direction z, coef -0.058219
		7: atom 7, direction z, coef -0.058219
		8: atom 8, direction z, coef -0.058219
	irrep = 0, ncomponent = 8
		0: atom 1, direction z, coef 0.860726
		1: atom 2, direction z, coef -0.278720
		2: atom 3, direction z, coef -0.278720
		3: atom 4, direction z, coef -0.278720
		4: atom 5, direction z, coef -0.080774
		5: atom 6, direction z, coef -0.080774
		6: atom 7, direction z, coef -0.080774
		7: atom 8, direction z, coef -0.080774
	irrep = 0, ncomponent = 7
		0: atom 2, direction z, coef 0.836800
		1: atom 3, direction z, coef -0.358228
		2: atom 4, direction z, coef -0.358228
		3: atom 5, direction z, coef -0.103815
		4: atom 6, direction z, coef -0.103815
		5: atom 7, direction z, coef -0.103815
		6: atom 8, direction z, coef -0.103815
	irrep = 0, ncomponent = 2
		0: atom 3, direction x, coef 0.707107
		1: atom 4, direction x, coef -0.707107
	irrep = 0, ncomponent = 6
		0: atom 3, direction z, coef 0.268155
		1: atom 4, direction z, coef 0.268155
		2: atom 5, direction z, coef -0.462652
		3: atom 6, direction z, coef -0.462652
		4: atom 7, direction z, coef -0.462652
		5: atom 8, direction z, coef -0.462652
	irrep = 0, ncomponent = 4
		0: atom 5, direction x, coef 0.500000
		1: atom 6, direction x, coef 0.500000
		2: atom 7, direction x, coef -0.500000
		3: atom 8, direction x, coef -0.500000
	irrep = 0, ncomponent = 4
		0: atom 5, direction y, coef 0.500000
		1: atom 6, direction y, coef -0.500000
		2: atom 7, direction y, coef -0.500000
		3: atom 8, direction y, coef 0.500000
	irrep = 1, ncomponent = 10
		0: atom 3, direction y, coef 0.447739
		1: atom 4, direction y, coef -0.447739
		2: atom 5, direction x, coef 0.223227
		3: atom 5, direction y, coef -0.316124
		4: atom 6, direction x, coef -0.223227
		5: atom 6, direction y, coef -0.316124
		6: atom 7, direction x, coef -0.223227
		7: atom 7, direction y, coef 0.316124
		8: atom 8, direction x, coef 0.223227
		9: atom 8, direction y, coef 0.316124
	irrep = 1, ncomponent = 8
		0: atom 5, direction x, coef 0.408435
		1: atom 5, direction y, coef 0.288411
		2: atom 6, direction x, coef -0.408435
		3: atom 6, direction y, coef 0.288411
		4: atom 7, direction x, coef -0.408435
		5: atom 7, direction y, coef -0.288411
		6: atom 8, direction x, coef 0.408435
		7: atom 8, direction y, coef -0.288411
	irrep = 1, ncomponent = 4
		0: atom 5, direction z, coef 0.500000
		1: atom 6, direction z, coef -0.500000
		2: atom 7, direction z, coef 0.500000
		3: atom 8, direction z, coef -0.500000
	irrep = 2, ncomponent = 15
		0: atom 0, direction x, coef 0.856594
		1: atom 1, direction x, coef -0.449039
		2: atom 2, direction x, coef -0.191786
		3: atom 3, direction x, coef -0.081406
		4: atom 3, direction z, coef -0.068867
		5: atom 4, direction x, coef -0.081406
		6: atom 4, direction z, coef 0.068867
		7: atom 5, direction x, coef -0.014601
		8: atom 5, direction z, coef -0.032543
		9: atom 6, direction x, coef -0.014601
		10: atom 6, direction z, coef -0.032543
		11: atom 7, direction x, coef -0.014601
		12: atom 7, direction z, coef 0.032543
		13: atom 8, direction x, coef -0.014601
		14: atom 8, direction z, coef 0.032543
	irrep = 2, ncomponent = 14
		0: atom 1, direction x, coef 0.408211
		1: atom 2, direction x, coef -0.596659
		2: atom 3, direction x, coef 0.040882
		3: atom 3, direction z, coef -0.397764
		4: atom 4, direction x, coef 0.040882
		5: atom 4, direction z, coef 0.397764
		6: atom 5, direction x, coef 0.063774
		7: atom 5, direction z, coef -0.187962
		8: atom 6, direction x, coef 0.063774
		9: atom 6, direction z, coef -0.187962
		10: atom 7, direction x, coef 0.063774
		11: atom 7, direction z, coef 0.187962
		12: atom 8, direction x, coef 0.063774
		13: atom 8, direction z, coef 0.187962
	irrep = 2, ncomponent = 13
		0: atom 2, direction x, coef 0.649534
		1: atom 3, direction x, coef -0.301835
		2: atom 3, direction z, coef -0.366978
		3: atom 4, direction x, coef -0.301835
		4: atom 4, direction z, coef 0.366978
		5: atom 5, direction x, coef -0.039565
		6: atom 5, direction z, coef -0.173414
		7: atom 6, direction x, coef -0.039565
		8: atom 6, direction z, coef -0.173414
		9: atom 7, direction x, coef -0.039565
		10: atom 7, direction z, coef 0.173414
		11: atom 8, direction x, coef -0.039565
		12: atom 8, direction z, coef 0.173414
	irrep = 2, ncomponent = 12
		0: atom 3, direction x, coef 0.265491
		1: atom 3, direction z, coef -0.082673
		2: atom 4, direction x, coef 0.265491
		3: atom 4, direction z, coef 0.082673
		4: atom 5, direction x, coef -0.458054
		5: atom 5, direction z, coef -0.039067
		6: atom 6, direction x, coef -0.458054
		7: atom 6, direction z, coef -0.039067
		8: atom 7, direction x, coef -0.458054
		9: atom 7, direction z, coef 0.039067
		10: atom 8, direction x, coef -0.458054
		11: atom 8, direction z, coef 0.039067
	irrep = 2, ncomponent = 6
		0: atom 3, direction z, coef 0.392889
		1: atom 4, direction z, coef -0.392889
		2: atom 5, direction z, coef -0.415715
		3: atom 6, direction z, coef -0.415715
		4: atom 7, direction z, coef 0.415715
		5: atom 8, direction z, coef 0.415715
	irrep = 2, ncomponent = 4
		0: atom 5, direction y, coef 0.500000
		1: atom 6, direction y, coef -0.500000
		2: atom 7, direction y, coef 0.500000
		3: atom 8, direction y, coef -0.500000
	irrep = 3, ncomponent = 13
		0: atom 0, direction y, coef 0.851047
		1: atom 1, direction y, coef -0.476769
		2: atom 2, direction y, coef -0.190739
		3: atom 3, direction y, coef -0.067188
		4: atom 4, direction y, coef -0.067188
		5: atom 5, direction y, coef -0.009408
		6: atom 5, direction z, coef -0.025722
		7: atom 6, direction y, coef -0.009408
		8: atom 6, direction z, coef 0.025722
		9: atom 7, direction y, coef -0.009408
		10: atom 7, direction z, coef 0.025722
		11: atom 8, direction y, coef -0.009408
		12: atom 8, direction z, coef -0.025722
	irrep = 3, ncomponent = 12
		0: atom 1, direction y, coef 0.306478
		1: atom 2, direction y, coef -0.796227
		2: atom 3, direction y, coef 0.160463
		3: atom 4, direction y, coef 0.160463
		4: atom 5, direction y, coef 0.124423
		5: atom 5, direction z, coef -0.199169
		6: atom 6, direction y, coef 0.124423
		7: atom 6, direction z, coef 0.199169
		8: atom 7, direction y, coef 0.124423
		9: atom 7, direction z, coef 0.199169
		10: atom 8, direction y, coef 0.124423
		11: atom 8, direction z, coef -0.199169
	irrep = 3, ncomponent = 11
		0: atom 2, direction y, coef 0.379361
		1: atom 3, direction y, coef -0.243760
		2: atom 4, direction y, coef -0.243760
		3: atom 5, direction y, coef 0.093304
		4: atom 5, direction z, coef -0.419054
		5: atom 6, direction y, coef 0.093304
		6: atom 6, direction z, coef 0.419054
		7: atom 7, direction y, coef 0.093304
		8: atom 7, direction z, coef 0.419054
		9: atom 8, direction y, coef 0.093304
		10: atom 8, direction z, coef -0.419054
	irrep = 3, ncomponent = 10
		0: atom 3, direction y, coef 0.252142
		1: atom 4, direction y, coef 0.252142
		2: atom 5, direction y, coef -0.435024
		3: atom 5, direction z, coef -0.170194
		4: atom 6, direction y, coef -0.435024
		5: atom 6, direction z, coef 0.170194
		6: atom 7, direction y, coef -0.435024
		7: atom 7, direction z, coef 0.170194
		8: atom 8, direction y, coef -0.435024
		9: atom 8, direction z, coef -0.170194
	irrep = 3, ncomponent = 4
		0: atom 5, direction x, coef 0.500000
		1: atom 6, direction x, coef -0.500000
		2: atom 7, direction x, coef 0.500000
		3: atom 8, direction x, coef -0.500000

-------------------------------------------------------------

  //>>>>>>>>>>>>>>>>>>>>>>>>>>>>>>>>>>>//
  //    Loading displacement 1 of 10   //
  //<<<<<<<<<<<<<<<<<<<<<<<<<<<<<<<<<<<//

*** tstart() called on ds1.sherrill.chemistry.gatech.edu
*** at Mon Mar 14 15:28:55 2016


         ---------------------------------------------------------
                                   SCF
            by Justin Turney, Rob Parrish, and Andy Simmonett
                              RHF Reference
                        1 Threads,    250 MiB Core
         ---------------------------------------------------------

  ==> Geometry <==

    Molecular point group: c2
    Full point group: C2

    Geometry (in Angstrom), charge = -1, multiplicity = 1:

       Center              X                  Y                   Z               Mass       
    ------------   -----------------  -----------------  -----------------  -----------------
           C          0.000000000000     0.000000000000     1.119905811674    12.000000000000
           N          0.000000000000     0.000000000000     2.310087277449    14.003074004780
           C          0.000000000000     0.000000000000    -0.231085072523    12.000000000000
           C         -0.781617287494    -0.000341983963    -1.483869398827    12.000000000000
           C          0.781617287494     0.000341983963    -1.483869398827    12.000000000000
           H         -1.275076382803    -0.899128324059    -1.835960153318     1.007825032070
           H         -1.273899712839     0.900794675125    -1.835960153318     1.007825032070
           H          1.275076382803     0.899128324059    -1.835960153318     1.007825032070
           H          1.273899712839    -0.900794675125    -1.835960153318     1.007825032070

  Running in c2 symmetry.

  Rotational constants: A =      0.68876  B =      0.10528  C =      0.09467 [cm^-1]
  Rotational constants: A =  20648.43430  B =   3156.31181  C =   2838.21605 [MHz]
  Nuclear repulsion =  136.459283197976816

  Charge       = -1
  Multiplicity = 1
  Electrons    = 36
  Nalpha       = 18
  Nbeta        = 18

  ==> Algorithm <==

  SCF Algorithm Type is DF.
  DIIS enabled.
  MOM disabled.
  Fractional occupation disabled.
  Guess Type is CORE.
  Energy threshold   = 1.00e-10
  Density threshold  = 1.00e-11
  Integral threshold = 0.00e+00

  ==> Primary Basis <==

  Basis Set: DZ
    Number of shells: 38
    Number of basis function: 58
    Number of Cartesian functions: 58
    Spherical Harmonics?: false
    Max angular momentum: 1

  ==> Pre-Iterations <==

   -------------------------------------------------------
    Irrep   Nso     Nmo     Nalpha   Nbeta   Ndocc  Nsocc
   -------------------------------------------------------
     A         32      32       0       0       0       0
     B         26      26       0       0       0       0
   -------------------------------------------------------
    Total      58      58      18      18      18       0
   -------------------------------------------------------

  ==> Integral Setup <==

  ==> DFJK: Density-Fitted J/K Matrices <==

    J tasked:                  Yes
    K tasked:                  Yes
    wK tasked:                  No
    OpenMP threads:              1
    Integrals threads:           1
    Memory (MB):               178
    Algorithm:                Core
    Integral Cache:           NONE
    Schwarz Cutoff:          1E-12
    Fitting Condition:       1E-12

   => Auxiliary Basis Set <=

  Basis Set: 
    Number of shells: 149
    Number of basis function: 529
    Number of Cartesian functions: 529
    Spherical Harmonics?: false
    Max angular momentum: 4

  Minimum eigenvalue in the overlap matrix is 2.5827955976E-03.
  Using Symmetric Orthogonalization.
  SCF Guess: Core (One-Electron) Hamiltonian.

  ==> Iterations <==

                           Total Energy        Delta E     RMS |[F,P]|

   @DF-RHF iter   1:  -179.44495443902244   -1.79445e+02   1.46473e-01 
   @DF-RHF iter   2:  -187.14923333900751   -7.70428e+00   8.42713e-02 DIIS
   @DF-RHF iter   3:  -197.70254472370257   -1.05533e+01   8.20178e-02 DIIS
   @DF-RHF iter   4:  -207.34233757904448   -9.63979e+00   2.31421e-02 DIIS
   @DF-RHF iter   5:  -207.87347034073159   -5.31133e-01   1.42009e-02 DIIS
   @DF-RHF iter   6:  -208.02404649628417   -1.50576e-01   6.49061e-03 DIIS
   @DF-RHF iter   7:  -208.06786752315170   -4.38210e-02   1.22286e-03 DIIS
   @DF-RHF iter   8:  -208.06946759411463   -1.60007e-03   4.06154e-04 DIIS
   @DF-RHF iter   9:  -208.06972128402489   -2.53690e-04   1.10913e-04 DIIS
   @DF-RHF iter  10:  -208.06975680103037   -3.55170e-05   8.11602e-05 DIIS
   @DF-RHF iter  11:  -208.06976792529466   -1.11243e-05   2.46394e-05 DIIS
   @DF-RHF iter  12:  -208.06977080456429   -2.87927e-06   9.98797e-06 DIIS
   @DF-RHF iter  13:  -208.06977124523152   -4.40667e-07   3.78947e-06 DIIS
   @DF-RHF iter  14:  -208.06977127757963   -3.23481e-08   3.69492e-07 DIIS
   @DF-RHF iter  15:  -208.06977127798777   -4.08136e-10   6.67025e-08 DIIS
   @DF-RHF iter  16:  -208.06977127799914   -1.13687e-11   1.42916e-08 DIIS
   @DF-RHF iter  17:  -208.06977127799954   -3.97904e-13   2.79104e-09 DIIS
   @DF-RHF iter  18:  -208.06977127799971   -1.70530e-13   6.39195e-10 DIIS
   @DF-RHF iter  19:  -208.06977127799971    0.00000e+00   1.77644e-10 DIIS
   @DF-RHF iter  20:  -208.06977127799959    1.13687e-13   1.01252e-10 DIIS
   @DF-RHF iter  21:  -208.06977127799959    0.00000e+00   5.92623e-11 DIIS
   @DF-RHF iter  22:  -208.06977127799959    0.00000e+00   1.38067e-11 DIIS
   @DF-RHF iter  23:  -208.06977127799959    0.00000e+00   3.10097e-12 DIIS

  ==> Post-Iterations <==

    Orbital Energies (a.u.)
    -----------------------

    Doubly Occupied:                                                      

       1A    -15.334336     2A    -11.080435     3A    -11.069695  
       1B    -11.069183     4A    -11.010569     5A     -0.988568  
       6A     -0.939719     7A     -0.682552     2B     -0.653904  
       8A     -0.505522     3B     -0.464819     9A     -0.343364  
      10A     -0.318109     4B     -0.303988     5B     -0.279568  
      11A     -0.250086     6B     -0.188544     7B     -0.054762  

    Virtual:                                                              

       8B      0.377069     9B      0.399137    12A      0.404387  
      13A      0.457251    10B      0.458461    11B      0.519531  
      14A      0.524828    12B      0.564061    15A      0.593246  
      16A      0.611910    13B      0.620048    14B      0.628183  
      17A      0.662726    18A      0.674577    15B      0.713384  
      16B      0.723785    19A      0.782742    20A      0.814276  
      17B      0.819448    18B      0.861667    19B      0.888032  
      20B      0.989338    21A      1.032976    21B      1.096462  
      22A      1.122384    22B      1.123118    23A      1.334974  
      23B      1.409640    24A      1.540172    25A      1.581111  
      24B      1.609163    26A      1.625771    27A      1.673388  
      25B      1.737049    28A      1.871325    29A     23.959659  
      30A     24.163021    26B     24.202230    31A     24.347129  
      32A     33.416844  

    Final Occupation by Irrep:
              A     B 
    DOCC [    11,    7 ]

  Energy converged.

  @DF-RHF Final Energy:  -208.06977127799959

   => Energetics <=

    Nuclear Repulsion Energy =            136.4592831979768164
    One-Electron Energy =                -557.9826660745545723
    Two-Electron Energy =                 213.4536115985781919
    DFT Exchange-Correlation Energy =       0.0000000000000000
    Empirical Dispersion Energy =           0.0000000000000000
    PCM Polarization Energy =               0.0000000000000000
    EFP Energy =                            0.0000000000000000
    Total Energy =                       -208.0697712779995925

    Alert: EFP and PCM quantities not currently incorporated into SCF psivars.

Properties will be evaluated at   0.000000,   0.000000,   0.000000 Bohr
  ==> Properties <==


Properties computed using the SCF density matrix

  Nuclear Dipole Moment: (a.u.)
     X:     0.0000      Y:     0.0000      Z:    -6.8913

  Electronic Dipole Moment: (a.u.)
     X:     0.0000      Y:     0.0000      Z:     4.7761

  Dipole Moment: (a.u.)
     X:     0.0000      Y:     0.0000      Z:    -2.1153     Total:     2.1153

  Dipole Moment: (Debye)
     X:     0.0000      Y:     0.0000      Z:    -5.3764     Total:     5.3764


  Saving occupied orbitals to File 180.

*** tstop() called on ds1.sherrill.chemistry.gatech.edu at Mon Mar 14 15:28:56 2016
Module time:
	user time   =       0.60 seconds =       0.01 minutes
	system time =       0.02 seconds =       0.00 minutes
	total time  =          1 seconds =       0.02 minutes
Total time:
	user time   =       0.60 seconds =       0.01 minutes
	system time =       0.02 seconds =       0.00 minutes
	total time  =          1 seconds =       0.02 minutes

  //>>>>>>>>>>>>>>>>>>>>>>>>>>>>>>>>>>>//
  //    Loading displacement 2 of 10   //
  //<<<<<<<<<<<<<<<<<<<<<<<<<<<<<<<<<<<//

*** tstart() called on ds1.sherrill.chemistry.gatech.edu
*** at Mon Mar 14 15:28:56 2016


         ---------------------------------------------------------
                                   SCF
            by Justin Turney, Rob Parrish, and Andy Simmonett
                              RHF Reference
                        1 Threads,    250 MiB Core
         ---------------------------------------------------------

  ==> Geometry <==

    Molecular point group: c2
    Full point group: C2

    Geometry (in Angstrom), charge = -1, multiplicity = 1:

       Center              X                  Y                   Z               Mass       
    ------------   -----------------  -----------------  -----------------  -----------------
           C          0.000000000000    -0.000000000000     1.119905811674    12.000000000000
           N          0.000000000000    -0.000000000000     2.310087277449    14.003074004780
           C          0.000000000000    -0.000000000000    -0.231085072523    12.000000000000
           C         -0.781617287494    -0.000000000000    -1.483869398827    12.000000000000
           C          0.781617287494     0.000000000000    -1.483869398827    12.000000000000
           H         -1.275564517257    -0.900721633082    -1.835960153318     1.007825032070
           H         -1.273411578385     0.899201366102    -1.835960153318     1.007825032070
           H          1.275564517257     0.900721633082    -1.835960153318     1.007825032070
           H          1.273411578385    -0.899201366102    -1.835960153318     1.007825032070

  Running in c2 symmetry.

  Rotational constants: A =      0.68876  B =      0.10528  C =      0.09467 [cm^-1]
  Rotational constants: A =  20648.43430  B =   3156.31192  C =   2838.21596 [MHz]
  Nuclear repulsion =  136.459299379931679

  Charge       = -1
  Multiplicity = 1
  Electrons    = 36
  Nalpha       = 18
  Nbeta        = 18

  ==> Algorithm <==

  SCF Algorithm Type is DF.
  DIIS enabled.
  MOM disabled.
  Fractional occupation disabled.
  Guess Type is CORE.
  Energy threshold   = 1.00e-10
  Density threshold  = 1.00e-11
  Integral threshold = 0.00e+00

  ==> Primary Basis <==

  Basis Set: DZ
    Number of shells: 38
    Number of basis function: 58
    Number of Cartesian functions: 58
    Spherical Harmonics?: false
    Max angular momentum: 1

  ==> Pre-Iterations <==

   -------------------------------------------------------
    Irrep   Nso     Nmo     Nalpha   Nbeta   Ndocc  Nsocc
   -------------------------------------------------------
     A         32      32       0       0       0       0
     B         26      26       0       0       0       0
   -------------------------------------------------------
    Total      58      58      18      18      18       0
   -------------------------------------------------------

  ==> Integral Setup <==

  ==> DFJK: Density-Fitted J/K Matrices <==

    J tasked:                  Yes
    K tasked:                  Yes
    wK tasked:                  No
    OpenMP threads:              1
    Integrals threads:           1
    Memory (MB):               178
    Algorithm:                Core
    Integral Cache:           NONE
    Schwarz Cutoff:          1E-12
    Fitting Condition:       1E-12

   => Auxiliary Basis Set <=

  Basis Set: 
    Number of shells: 149
    Number of basis function: 529
    Number of Cartesian functions: 529
    Spherical Harmonics?: false
    Max angular momentum: 4

  Minimum eigenvalue in the overlap matrix is 2.5827977467E-03.
  Using Symmetric Orthogonalization.
  SCF Guess: Core (One-Electron) Hamiltonian.

  ==> Iterations <==

                           Total Energy        Delta E     RMS |[F,P]|

   @DF-RHF iter   1:  -179.44497019024055   -1.79445e+02   1.46473e-01 
   @DF-RHF iter   2:  -187.14918906892092   -7.70422e+00   8.42714e-02 DIIS
   @DF-RHF iter   3:  -197.70250951150064   -1.05533e+01   8.20178e-02 DIIS
   @DF-RHF iter   4:  -207.34233053790393   -9.63982e+00   2.31422e-02 DIIS
   @DF-RHF iter   5:  -207.87346668905286   -5.31136e-01   1.42009e-02 DIIS
   @DF-RHF iter   6:  -208.02404388644572   -1.50577e-01   6.49068e-03 DIIS
   @DF-RHF iter   7:  -208.06786581392595   -4.38219e-02   1.22289e-03 DIIS
   @DF-RHF iter   8:  -208.06946593805344   -1.60012e-03   4.06161e-04 DIIS
   @DF-RHF iter   9:  -208.06971963504947   -2.53697e-04   1.10914e-04 DIIS
   @DF-RHF iter  10:  -208.06975515239100   -3.55173e-05   8.11614e-05 DIIS
   @DF-RHF iter  11:  -208.06976627680393   -1.11244e-05   2.46396e-05 DIIS
   @DF-RHF iter  12:  -208.06976915611239   -2.87931e-06   9.98804e-06 DIIS
   @DF-RHF iter  13:  -208.06976959679315   -4.40681e-07   3.78953e-06 DIIS
   @DF-RHF iter  14:  -208.06976962914331   -3.23502e-08   3.69526e-07 DIIS
   @DF-RHF iter  15:  -208.06976962955144   -4.08136e-10   6.67650e-08 DIIS
   @DF-RHF iter  16:  -208.06976962956281   -1.13687e-11   1.44113e-08 DIIS
   @DF-RHF iter  17:  -208.06976962956350   -6.82121e-13   3.02505e-09 DIIS
   @DF-RHF iter  18:  -208.06976962956344    5.68434e-14   9.67413e-10 DIIS
   @DF-RHF iter  19:  -208.06976962956332    1.13687e-13   4.52061e-10 DIIS
   @DF-RHF iter  20:  -208.06976962956327    5.68434e-14   2.05842e-10 DIIS
   @DF-RHF iter  21:  -208.06976962956350   -2.27374e-13   7.57136e-11 DIIS
   @DF-RHF iter  22:  -208.06976962956344    5.68434e-14   1.30109e-11 DIIS
   @DF-RHF iter  23:  -208.06976962956338    5.68434e-14   2.92763e-12 DIIS

  ==> Post-Iterations <==

    Orbital Energies (a.u.)
    -----------------------

    Doubly Occupied:                                                      

       1A    -15.334336     2A    -11.080435     3A    -11.069695  
       1B    -11.069183     4A    -11.010569     5A     -0.988568  
       6A     -0.939719     7A     -0.682553     2B     -0.653905  
       8A     -0.505521     3B     -0.464819     9A     -0.343364  
      10A     -0.318109     4B     -0.303987     5B     -0.279568  
      11A     -0.250086     6B     -0.188544     7B     -0.054762  

    Virtual:                                                              

       8B      0.377069     9B      0.399137    12A      0.404387  
      13A      0.457251    10B      0.458461    11B      0.519531  
      14A      0.524829    12B      0.564059    15A      0.593242  
      16A      0.611914    13B      0.620048    14B      0.628187  
      17A      0.662726    18A      0.674576    15B      0.713385  
      16B      0.723785    19A      0.782742    20A      0.814276  
      17B      0.819448    18B      0.861667    19B      0.888032  
      20B      0.989337    21A      1.032975    21B      1.096462  
      22A      1.122384    22B      1.123118    23A      1.334974  
      23B      1.409636    24A      1.540171    25A      1.581110  
      24B      1.609170    26A      1.625770    27A      1.673395  
      25B      1.737050    28A      1.871325    29A     23.959659  
      30A     24.163022    26B     24.202231    31A     24.347129  
      32A     33.416844  

    Final Occupation by Irrep:
              A     B 
    DOCC [    11,    7 ]

  Energy converged.

  @DF-RHF Final Energy:  -208.06976962956338

   => Energetics <=

    Nuclear Repulsion Energy =            136.4592993799316787
    One-Electron Energy =                -557.9826919496260871
    Two-Electron Energy =                 213.4536229401309697
    DFT Exchange-Correlation Energy =       0.0000000000000000
    Empirical Dispersion Energy =           0.0000000000000000
    PCM Polarization Energy =               0.0000000000000000
    EFP Energy =                            0.0000000000000000
    Total Energy =                       -208.0697696295634387

    Alert: EFP and PCM quantities not currently incorporated into SCF psivars.

Properties will be evaluated at   0.000000,   0.000000,   0.000000 Bohr
  ==> Properties <==


Properties computed using the SCF density matrix

  Nuclear Dipole Moment: (a.u.)
     X:     0.0000      Y:     0.0000      Z:    -6.8913

  Electronic Dipole Moment: (a.u.)
     X:     0.0000      Y:     0.0000      Z:     4.7761

  Dipole Moment: (a.u.)
     X:     0.0000      Y:     0.0000      Z:    -2.1152     Total:     2.1152

  Dipole Moment: (Debye)
     X:     0.0000      Y:     0.0000      Z:    -5.3764     Total:     5.3764


  Saving occupied orbitals to File 180.

*** tstop() called on ds1.sherrill.chemistry.gatech.edu at Mon Mar 14 15:28:57 2016
Module time:
	user time   =       0.68 seconds =       0.01 minutes
	system time =       0.00 seconds =       0.00 minutes
	total time  =          1 seconds =       0.02 minutes
Total time:
	user time   =       1.34 seconds =       0.02 minutes
	system time =       0.02 seconds =       0.00 minutes
	total time  =          2 seconds =       0.03 minutes

  //>>>>>>>>>>>>>>>>>>>>>>>>>>>>>>>>>>>//
  //    Loading displacement 3 of 10   //
  //<<<<<<<<<<<<<<<<<<<<<<<<<<<<<<<<<<<//

*** tstart() called on ds1.sherrill.chemistry.gatech.edu
*** at Mon Mar 14 15:28:57 2016


         ---------------------------------------------------------
                                   SCF
            by Justin Turney, Rob Parrish, and Andy Simmonett
                              RHF Reference
                        1 Threads,    250 MiB Core
         ---------------------------------------------------------

  ==> Geometry <==

    Molecular point group: c2
    Full point group: C2

    Geometry (in Angstrom), charge = -1, multiplicity = 1:

       Center              X                  Y                   Z               Mass       
    ------------   -----------------  -----------------  -----------------  -----------------
           C          0.000000000000     0.000000000000     1.119905811674    12.000000000000
           N          0.000000000000     0.000000000000     2.310087277449    14.003074004780
           C          0.000000000000     0.000000000000    -0.231085072523    12.000000000000
           C         -0.781617287494    -0.000000000000    -1.483869398827    12.000000000000
           C          0.781617287494     0.000000000000    -1.483869398827    12.000000000000
           H         -1.274488047821    -0.899961499592    -1.837277950484     1.007825032070
           H         -1.274488047821     0.899961499592    -1.834642356152     1.007825032070
           H          1.274488047821     0.899961499592    -1.837277950484     1.007825032070
           H          1.274488047821    -0.899961499592    -1.834642356152     1.007825032070

  Running in c2 symmetry.

  Rotational constants: A =      0.68876  B =      0.10528  C =      0.09467 [cm^-1]
  Rotational constants: A =  20648.44021  B =   3156.31176  C =   2838.21598 [MHz]
  Nuclear repulsion =  136.459281144131637

  Charge       = -1
  Multiplicity = 1
  Electrons    = 36
  Nalpha       = 18
  Nbeta        = 18

  ==> Algorithm <==

  SCF Algorithm Type is DF.
  DIIS enabled.
  MOM disabled.
  Fractional occupation disabled.
  Guess Type is CORE.
  Energy threshold   = 1.00e-10
  Density threshold  = 1.00e-11
  Integral threshold = 0.00e+00

  ==> Primary Basis <==

  Basis Set: DZ
    Number of shells: 38
    Number of basis function: 58
    Number of Cartesian functions: 58
    Spherical Harmonics?: false
    Max angular momentum: 1

  ==> Pre-Iterations <==

   -------------------------------------------------------
    Irrep   Nso     Nmo     Nalpha   Nbeta   Ndocc  Nsocc
   -------------------------------------------------------
     A         32      32       0       0       0       0
     B         26      26       0       0       0       0
   -------------------------------------------------------
    Total      58      58      18      18      18       0
   -------------------------------------------------------

  ==> Integral Setup <==

  ==> DFJK: Density-Fitted J/K Matrices <==

    J tasked:                  Yes
    K tasked:                  Yes
    wK tasked:                  No
    OpenMP threads:              1
    Integrals threads:           1
    Memory (MB):               178
    Algorithm:                Core
    Integral Cache:           NONE
    Schwarz Cutoff:          1E-12
    Fitting Condition:       1E-12

   => Auxiliary Basis Set <=

  Basis Set: 
    Number of shells: 149
    Number of basis function: 529
    Number of Cartesian functions: 529
    Spherical Harmonics?: false
    Max angular momentum: 4

  Minimum eigenvalue in the overlap matrix is 2.5827950735E-03.
  Using Symmetric Orthogonalization.
  SCF Guess: Core (One-Electron) Hamiltonian.

  ==> Iterations <==

                           Total Energy        Delta E     RMS |[F,P]|

   @DF-RHF iter   1:  -179.44472666348463   -1.79445e+02   1.46472e-01 
   @DF-RHF iter   2:  -187.14926736847946   -7.70454e+00   8.42710e-02 DIIS
   @DF-RHF iter   3:  -197.70278352205469   -1.05535e+01   8.20161e-02 DIIS
   @DF-RHF iter   4:  -207.34234188193670   -9.63956e+00   2.31419e-02 DIIS
   @DF-RHF iter   5:  -207.87350819841453   -5.31166e-01   1.41994e-02 DIIS
   @DF-RHF iter   6:  -208.02406404871965   -1.50556e-01   6.48935e-03 DIIS
   @DF-RHF iter   7:  -208.06786902681608   -4.38050e-02   1.22261e-03 DIIS
   @DF-RHF iter   8:  -208.06946851399385   -1.59949e-03   4.06121e-04 DIIS
   @DF-RHF iter   9:  -208.06972216065788   -2.53647e-04   1.10895e-04 DIIS
   @DF-RHF iter  10:  -208.06975766876621   -3.55081e-05   8.11411e-05 DIIS
   @DF-RHF iter  11:  -208.06976878984403   -1.11211e-05   2.46383e-05 DIIS
   @DF-RHF iter  12:  -208.06977166891375   -2.87907e-06   9.98668e-06 DIIS
   @DF-RHF iter  13:  -208.06977210945195   -4.40538e-07   3.78924e-06 DIIS
   @DF-RHF iter  14:  -208.06977214178920   -3.23373e-08   3.69467e-07 DIIS
   @DF-RHF iter  15:  -208.06977214219722   -4.08022e-10   6.67151e-08 DIIS
   @DF-RHF iter  16:  -208.06977214220871   -1.14824e-11   1.43206e-08 DIIS
   @DF-RHF iter  17:  -208.06977214220916   -4.54747e-13   2.85383e-09 DIIS
   @DF-RHF iter  18:  -208.06977214220922   -5.68434e-14   7.40282e-10 DIIS
   @DF-RHF iter  19:  -208.06977214220910    1.13687e-13   2.84348e-10 DIIS
   @DF-RHF iter  20:  -208.06977214220933   -2.27374e-13   1.57132e-10 DIIS
   @DF-RHF iter  21:  -208.06977214220927    5.68434e-14   7.27107e-11 DIIS
   @DF-RHF iter  22:  -208.06977214220922    5.68434e-14   1.32088e-11 DIIS
   @DF-RHF iter  23:  -208.06977214220933   -1.13687e-13   3.01514e-12 DIIS

  ==> Post-Iterations <==

    Orbital Energies (a.u.)
    -----------------------

    Doubly Occupied:                                                      

       1A    -15.334336     2A    -11.080435     3A    -11.069695  
       1B    -11.069183     4A    -11.010569     5A     -0.988568  
       6A     -0.939719     7A     -0.682552     2B     -0.653904  
       8A     -0.505521     3B     -0.464819     9A     -0.343365  
      10A     -0.318109     4B     -0.303987     5B     -0.279568  
      11A     -0.250086     6B     -0.188543     7B     -0.054762  

    Virtual:                                                              

       8B      0.377069     9B      0.399137    12A      0.404387  
      13A      0.457252    10B      0.458462    11B      0.519532  
      14A      0.524829    12B      0.564061    15A      0.593247  
      16A      0.611909    13B      0.620049    14B      0.628182  
      17A      0.662725    18A      0.674576    15B      0.713385  
      16B      0.723785    19A      0.782742    20A      0.814276  
      17B      0.819448    18B      0.861668    19B      0.888032  
      20B      0.989337    21A      1.032976    21B      1.096463  
      22A      1.122384    22B      1.123118    23A      1.334975  
      23B      1.409642    24A      1.540174    25A      1.581114  
      24B      1.609161    26A      1.625771    27A      1.673382  
      25B      1.737048    28A      1.871325    29A     23.959659  
      30A     24.163021    26B     24.202230    31A     24.347129  
      32A     33.416844  

    Final Occupation by Irrep:
              A     B 
    DOCC [    11,    7 ]

  Energy converged.

  @DF-RHF Final Energy:  -208.06977214220933

   => Energetics <=

    Nuclear Repulsion Energy =            136.4592811441316371
    One-Electron Energy =                -557.9826657663791138
    Two-Electron Energy =                 213.4536124800382026
    DFT Exchange-Correlation Energy =       0.0000000000000000
    Empirical Dispersion Energy =           0.0000000000000000
    PCM Polarization Energy =               0.0000000000000000
    EFP Energy =                            0.0000000000000000
    Total Energy =                       -208.0697721422092741

    Alert: EFP and PCM quantities not currently incorporated into SCF psivars.

Properties will be evaluated at   0.000000,   0.000000,   0.000000 Bohr
  ==> Properties <==


Properties computed using the SCF density matrix

  Nuclear Dipole Moment: (a.u.)
     X:     0.0000      Y:     0.0000      Z:    -6.8913

  Electronic Dipole Moment: (a.u.)
     X:     0.0000      Y:     0.0000      Z:     4.7761

  Dipole Moment: (a.u.)
     X:     0.0000      Y:     0.0000      Z:    -2.1153     Total:     2.1153

  Dipole Moment: (Debye)
     X:     0.0000      Y:     0.0000      Z:    -5.3764     Total:     5.3764


  Saving occupied orbitals to File 180.

*** tstop() called on ds1.sherrill.chemistry.gatech.edu at Mon Mar 14 15:28:57 2016
Module time:
	user time   =       0.60 seconds =       0.01 minutes
	system time =       0.01 seconds =       0.00 minutes
	total time  =          0 seconds =       0.00 minutes
Total time:
	user time   =       2.00 seconds =       0.03 minutes
	system time =       0.03 seconds =       0.00 minutes
	total time  =          2 seconds =       0.03 minutes

  //>>>>>>>>>>>>>>>>>>>>>>>>>>>>>>>>>>>//
  //    Loading displacement 4 of 10   //
  //<<<<<<<<<<<<<<<<<<<<<<<<<<<<<<<<<<<//

*** tstart() called on ds1.sherrill.chemistry.gatech.edu
*** at Mon Mar 14 15:28:57 2016


         ---------------------------------------------------------
                                   SCF
            by Justin Turney, Rob Parrish, and Andy Simmonett
                              RHF Reference
                        1 Threads,    250 MiB Core
         ---------------------------------------------------------

  ==> Geometry <==

    Molecular point group: c2
    Full point group: C2

    Geometry (in Angstrom), charge = -1, multiplicity = 1:

       Center              X                  Y                   Z               Mass       
    ------------   -----------------  -----------------  -----------------  -----------------
           C          0.000000000000    -0.000000000000     1.119905811674    12.000000000000
           N          0.000000000000    -0.000000000000     2.310087277449    14.003074004780
           C          0.000000000000    -0.000000000000    -0.231085072523    12.000000000000
           C         -0.781617287494     0.000341983963    -1.483869398827    12.000000000000
           C          0.781617287494    -0.000341983963    -1.483869398827    12.000000000000
           H         -1.272823243403    -0.900034541635    -1.835960153318     1.007825032070
           H         -1.276152852239     0.899888457549    -1.835960153318     1.007825032070
           H          1.272823243403     0.900034541635    -1.835960153318     1.007825032070
           H          1.276152852239    -0.899888457549    -1.835960153318     1.007825032070

  Running in c2 symmetry.

  Rotational constants: A =      0.68876  B =      0.10528  C =      0.09467 [cm^-1]
  Rotational constants: A =  20648.42839  B =   3156.31201  C =   2838.21578 [MHz]
  Nuclear repulsion =  136.459274733164762

  Charge       = -1
  Multiplicity = 1
  Electrons    = 36
  Nalpha       = 18
  Nbeta        = 18

  ==> Algorithm <==

  SCF Algorithm Type is DF.
  DIIS enabled.
  MOM disabled.
  Fractional occupation disabled.
  Guess Type is CORE.
  Energy threshold   = 1.00e-10
  Density threshold  = 1.00e-11
  Integral threshold = 0.00e+00

  ==> Primary Basis <==

  Basis Set: DZ
    Number of shells: 38
    Number of basis function: 58
    Number of Cartesian functions: 58
    Spherical Harmonics?: false
    Max angular momentum: 1

  ==> Pre-Iterations <==

   -------------------------------------------------------
    Irrep   Nso     Nmo     Nalpha   Nbeta   Ndocc  Nsocc
   -------------------------------------------------------
     A         32      32       0       0       0       0
     B         26      26       0       0       0       0
   -------------------------------------------------------
    Total      58      58      18      18      18       0
   -------------------------------------------------------

  ==> Integral Setup <==

  ==> DFJK: Density-Fitted J/K Matrices <==

    J tasked:                  Yes
    K tasked:                  Yes
    wK tasked:                  No
    OpenMP threads:              1
    Integrals threads:           1
    Memory (MB):               178
    Algorithm:                Core
    Integral Cache:           NONE
    Schwarz Cutoff:          1E-12
    Fitting Condition:       1E-12

   => Auxiliary Basis Set <=

  Basis Set: 
    Number of shells: 149
    Number of basis function: 529
    Number of Cartesian functions: 529
    Spherical Harmonics?: false
    Max angular momentum: 4

  Minimum eigenvalue in the overlap matrix is 2.5827953830E-03.
  Using Symmetric Orthogonalization.
  SCF Guess: Core (One-Electron) Hamiltonian.

  ==> Iterations <==

                           Total Energy        Delta E     RMS |[F,P]|

   @DF-RHF iter   1:  -179.44491242664708   -1.79445e+02   1.46473e-01 
   @DF-RHF iter   2:  -187.14917428004605   -7.70426e+00   8.42713e-02 DIIS
   @DF-RHF iter   3:  -197.70257084959746   -1.05534e+01   8.20173e-02 DIIS
   @DF-RHF iter   4:  -207.34232519341288   -9.63975e+00   2.31422e-02 DIIS
   @DF-RHF iter   5:  -207.87347881790799   -5.31154e-01   1.42005e-02 DIIS
   @DF-RHF iter   6:  -208.02405005528260   -1.50571e-01   6.49035e-03 DIIS
   @DF-RHF iter   7:  -208.06786761699766   -4.38176e-02   1.22283e-03 DIIS
   @DF-RHF iter   8:  -208.06946760193557   -1.59998e-03   4.06158e-04 DIIS
   @DF-RHF iter   9:  -208.06972129162864   -2.53690e-04   1.10908e-04 DIIS
   @DF-RHF iter  10:  -208.06975680607718   -3.55144e-05   8.11564e-05 DIIS
   @DF-RHF iter  11:  -208.06976792948194   -1.11234e-05   2.46394e-05 DIIS
   @DF-RHF iter  12:  -208.06977080872542   -2.87924e-06   9.98762e-06 DIIS
   @DF-RHF iter  13:  -208.06977124936873   -4.40643e-07   3.78950e-06 DIIS
   @DF-RHF iter  14:  -208.06977128171644   -3.23477e-08   3.69505e-07 DIIS
   @DF-RHF iter  15:  -208.06977128212452   -4.08079e-10   6.67281e-08 DIIS
   @DF-RHF iter  16:  -208.06977128213606   -1.15392e-11   1.43384e-08 DIIS
   @DF-RHF iter  17:  -208.06977128213634   -2.84217e-13   2.88481e-09 DIIS
   @DF-RHF iter  18:  -208.06977128213634    0.00000e+00   7.84819e-10 DIIS
   @DF-RHF iter  19:  -208.06977128213646   -1.13687e-13   3.22171e-10 DIIS
   @DF-RHF iter  20:  -208.06977128213646    0.00000e+00   1.71720e-10 DIIS
   @DF-RHF iter  21:  -208.06977128213646    0.00000e+00   7.42210e-11 DIIS
   @DF-RHF iter  22:  -208.06977128213640    5.68434e-14   1.31222e-11 DIIS
   @DF-RHF iter  23:  -208.06977128213657   -1.70530e-13   2.99116e-12 DIIS

  ==> Post-Iterations <==

    Orbital Energies (a.u.)
    -----------------------

    Doubly Occupied:                                                      

       1A    -15.334336     2A    -11.080435     3A    -11.069695  
       1B    -11.069183     4A    -11.010569     5A     -0.988568  
       6A     -0.939719     7A     -0.682552     2B     -0.653903  
       8A     -0.505520     3B     -0.464819     9A     -0.343365  
      10A     -0.318109     4B     -0.303987     5B     -0.279568  
      11A     -0.250086     6B     -0.188543     7B     -0.054762  

    Virtual:                                                              

       8B      0.377069     9B      0.399137    12A      0.404387  
      13A      0.457251    10B      0.458462    11B      0.519532  
      14A      0.524829    12B      0.564061    15A      0.593245  
      16A      0.611912    13B      0.620047    14B      0.628183  
      17A      0.662725    18A      0.674575    15B      0.713384  
      16B      0.723786    19A      0.782743    20A      0.814276  
      17B      0.819449    18B      0.861667    19B      0.888032  
      20B      0.989338    21A      1.032977    21B      1.096462  
      22A      1.122384    22B      1.123118    23A      1.334975  
      23B      1.409641    24A      1.540174    25A      1.581115  
      24B      1.609163    26A      1.625772    27A      1.673379  
      25B      1.737048    28A      1.871325    29A     23.959658  
      30A     24.163021    26B     24.202230    31A     24.347129  
      32A     33.416844  

    Final Occupation by Irrep:
              A     B 
    DOCC [    11,    7 ]

  Energy converged.

  @DF-RHF Final Energy:  -208.06977128213657

   => Energetics <=

    Nuclear Repulsion Energy =            136.4592747331647615
    One-Electron Energy =                -557.9826522388239027
    Two-Electron Energy =                 213.4536062235226268
    DFT Exchange-Correlation Energy =       0.0000000000000000
    Empirical Dispersion Energy =           0.0000000000000000
    PCM Polarization Energy =               0.0000000000000000
    EFP Energy =                            0.0000000000000000
    Total Energy =                       -208.0697712821365144

    Alert: EFP and PCM quantities not currently incorporated into SCF psivars.

Properties will be evaluated at   0.000000,   0.000000,   0.000000 Bohr
  ==> Properties <==


Properties computed using the SCF density matrix

  Nuclear Dipole Moment: (a.u.)
     X:     0.0000      Y:     0.0000      Z:    -6.8913

  Electronic Dipole Moment: (a.u.)
     X:     0.0000      Y:     0.0000      Z:     4.7761

  Dipole Moment: (a.u.)
     X:     0.0000      Y:     0.0000      Z:    -2.1153     Total:     2.1153

  Dipole Moment: (Debye)
     X:     0.0000      Y:     0.0000      Z:    -5.3764     Total:     5.3764


  Saving occupied orbitals to File 180.

*** tstop() called on ds1.sherrill.chemistry.gatech.edu at Mon Mar 14 15:28:58 2016
Module time:
	user time   =       0.61 seconds =       0.01 minutes
	system time =       0.01 seconds =       0.00 minutes
	total time  =          1 seconds =       0.02 minutes
Total time:
	user time   =       2.67 seconds =       0.04 minutes
	system time =       0.04 seconds =       0.00 minutes
	total time  =          3 seconds =       0.05 minutes

  //>>>>>>>>>>>>>>>>>>>>>>>>>>>>>>>>>>>//
  //    Loading displacement 5 of 10   //
  //<<<<<<<<<<<<<<<<<<<<<<<<<<<<<<<<<<<//

*** tstart() called on ds1.sherrill.chemistry.gatech.edu
*** at Mon Mar 14 15:28:58 2016


         ---------------------------------------------------------
                                   SCF
            by Justin Turney, Rob Parrish, and Andy Simmonett
                              RHF Reference
                        1 Threads,    250 MiB Core
         ---------------------------------------------------------

  ==> Geometry <==

    Molecular point group: c2
    Full point group: C2

    Geometry (in Angstrom), charge = -1, multiplicity = 1:

       Center              X                  Y                   Z               Mass       
    ------------   -----------------  -----------------  -----------------  -----------------
           C          0.000000000000     0.000000000000     1.119905811674    12.000000000000
           N          0.000000000000     0.000000000000     2.310087277449    14.003074004780
           C          0.000000000000     0.000000000000    -0.231085072523    12.000000000000
           C         -0.781617287494    -0.000341983963    -1.483869398827    12.000000000000
           C          0.781617287494     0.000341983963    -1.483869398827    12.000000000000
           H         -1.276152852239    -0.899888457549    -1.835960153318     1.007825032070
           H         -1.272823243403     0.900034541635    -1.835960153318     1.007825032070
           H          1.276152852239     0.899888457549    -1.835960153318     1.007825032070
           H          1.272823243403    -0.900034541635    -1.835960153318     1.007825032070

  Running in c2 symmetry.

  Rotational constants: A =      0.68876  B =      0.10528  C =      0.09467 [cm^-1]
  Rotational constants: A =  20648.42839  B =   3156.31201  C =   2838.21578 [MHz]
  Nuclear repulsion =  136.459274733164762

  Charge       = -1
  Multiplicity = 1
  Electrons    = 36
  Nalpha       = 18
  Nbeta        = 18

  ==> Algorithm <==

  SCF Algorithm Type is DF.
  DIIS enabled.
  MOM disabled.
  Fractional occupation disabled.
  Guess Type is CORE.
  Energy threshold   = 1.00e-10
  Density threshold  = 1.00e-11
  Integral threshold = 0.00e+00

  ==> Primary Basis <==

  Basis Set: DZ
    Number of shells: 38
    Number of basis function: 58
    Number of Cartesian functions: 58
    Spherical Harmonics?: false
    Max angular momentum: 1

  ==> Pre-Iterations <==

   -------------------------------------------------------
    Irrep   Nso     Nmo     Nalpha   Nbeta   Ndocc  Nsocc
   -------------------------------------------------------
     A         32      32       0       0       0       0
     B         26      26       0       0       0       0
   -------------------------------------------------------
    Total      58      58      18      18      18       0
   -------------------------------------------------------

  ==> Integral Setup <==

  ==> DFJK: Density-Fitted J/K Matrices <==

    J tasked:                  Yes
    K tasked:                  Yes
    wK tasked:                  No
    OpenMP threads:              1
    Integrals threads:           1
    Memory (MB):               178
    Algorithm:                Core
    Integral Cache:           NONE
    Schwarz Cutoff:          1E-12
    Fitting Condition:       1E-12

   => Auxiliary Basis Set <=

  Basis Set: 
    Number of shells: 149
    Number of basis function: 529
    Number of Cartesian functions: 529
    Spherical Harmonics?: false
    Max angular momentum: 4

  Minimum eigenvalue in the overlap matrix is 2.5827953830E-03.
  Using Symmetric Orthogonalization.
  SCF Guess: Core (One-Electron) Hamiltonian.

  ==> Iterations <==

                           Total Energy        Delta E     RMS |[F,P]|

   @DF-RHF iter   1:  -179.44491242653652   -1.79445e+02   1.46473e-01 
   @DF-RHF iter   2:  -187.14917428021965   -7.70426e+00   8.42713e-02 DIIS
   @DF-RHF iter   3:  -197.70257084947150   -1.05534e+01   8.20173e-02 DIIS
   @DF-RHF iter   4:  -207.34232519341163   -9.63975e+00   2.31422e-02 DIIS
   @DF-RHF iter   5:  -207.87347881776134   -5.31154e-01   1.42005e-02 DIIS
   @DF-RHF iter   6:  -208.02405005517539   -1.50571e-01   6.49035e-03 DIIS
   @DF-RHF iter   7:  -208.06786761689841   -4.38176e-02   1.22283e-03 DIIS
   @DF-RHF iter   8:  -208.06946760183581   -1.59998e-03   4.06158e-04 DIIS
   @DF-RHF iter   9:  -208.06972129152877   -2.53690e-04   1.10908e-04 DIIS
   @DF-RHF iter  10:  -208.06975680597725   -3.55144e-05   8.11564e-05 DIIS
   @DF-RHF iter  11:  -208.06976792938212   -1.11234e-05   2.46394e-05 DIIS
   @DF-RHF iter  12:  -208.06977080862544   -2.87924e-06   9.98762e-06 DIIS
   @DF-RHF iter  13:  -208.06977124926891   -4.40643e-07   3.78950e-06 DIIS
   @DF-RHF iter  14:  -208.06977128161657   -3.23477e-08   3.69505e-07 DIIS
   @DF-RHF iter  15:  -208.06977128202459   -4.08022e-10   6.67281e-08 DIIS
   @DF-RHF iter  16:  -208.06977128203607   -1.14824e-11   1.43384e-08 DIIS
   @DF-RHF iter  17:  -208.06977128203653   -4.54747e-13   2.88481e-09 DIIS
   @DF-RHF iter  18:  -208.06977128203664   -1.13687e-13   7.84818e-10 DIIS
   @DF-RHF iter  19:  -208.06977128203675   -1.13687e-13   3.22172e-10 DIIS
   @DF-RHF iter  20:  -208.06977128203670    5.68434e-14   1.71721e-10 DIIS
   @DF-RHF iter  21:  -208.06977128203664    5.68434e-14   7.42220e-11 DIIS
   @DF-RHF iter  22:  -208.06977128203664    0.00000e+00   1.31228e-11 DIIS
   @DF-RHF iter  23:  -208.06977128203664    0.00000e+00   2.99142e-12 DIIS

  ==> Post-Iterations <==

    Orbital Energies (a.u.)
    -----------------------

    Doubly Occupied:                                                      

       1A    -15.334336     2A    -11.080435     3A    -11.069695  
       1B    -11.069183     4A    -11.010569     5A     -0.988568  
       6A     -0.939719     7A     -0.682552     2B     -0.653903  
       8A     -0.505520     3B     -0.464819     9A     -0.343365  
      10A     -0.318109     4B     -0.303987     5B     -0.279568  
      11A     -0.250086     6B     -0.188543     7B     -0.054762  

    Virtual:                                                              

       8B      0.377069     9B      0.399137    12A      0.404387  
      13A      0.457251    10B      0.458462    11B      0.519532  
      14A      0.524829    12B      0.564061    15A      0.593245  
      16A      0.611912    13B      0.620047    14B      0.628183  
      17A      0.662725    18A      0.674575    15B      0.713384  
      16B      0.723786    19A      0.782743    20A      0.814276  
      17B      0.819449    18B      0.861667    19B      0.888032  
      20B      0.989338    21A      1.032977    21B      1.096462  
      22A      1.122384    22B      1.123118    23A      1.334975  
      23B      1.409641    24A      1.540174    25A      1.581115  
      24B      1.609163    26A      1.625772    27A      1.673379  
      25B      1.737048    28A      1.871325    29A     23.959658  
      30A     24.163021    26B     24.202230    31A     24.347129  
      32A     33.416844  

    Final Occupation by Irrep:
              A     B 
    DOCC [    11,    7 ]

  Energy converged.

  @DF-RHF Final Energy:  -208.06977128203664

   => Energetics <=

    Nuclear Repulsion Energy =            136.4592747331647615
    One-Electron Energy =                -557.9826522387861587
    Two-Electron Energy =                 213.4536062235847567
    DFT Exchange-Correlation Energy =       0.0000000000000000
    Empirical Dispersion Energy =           0.0000000000000000
    PCM Polarization Energy =               0.0000000000000000
    EFP Energy =                            0.0000000000000000
    Total Energy =                       -208.0697712820366405

    Alert: EFP and PCM quantities not currently incorporated into SCF psivars.

Properties will be evaluated at   0.000000,   0.000000,   0.000000 Bohr
  ==> Properties <==


Properties computed using the SCF density matrix

  Nuclear Dipole Moment: (a.u.)
     X:     0.0000      Y:     0.0000      Z:    -6.8913

  Electronic Dipole Moment: (a.u.)
     X:     0.0000      Y:     0.0000      Z:     4.7761

  Dipole Moment: (a.u.)
     X:     0.0000      Y:     0.0000      Z:    -2.1153     Total:     2.1153

  Dipole Moment: (Debye)
     X:     0.0000      Y:     0.0000      Z:    -5.3764     Total:     5.3764


  Saving occupied orbitals to File 180.

*** tstop() called on ds1.sherrill.chemistry.gatech.edu at Mon Mar 14 15:28:59 2016
Module time:
	user time   =       0.60 seconds =       0.01 minutes
	system time =       0.01 seconds =       0.00 minutes
	total time  =          1 seconds =       0.02 minutes
Total time:
	user time   =       3.33 seconds =       0.06 minutes
	system time =       0.05 seconds =       0.00 minutes
	total time  =          4 seconds =       0.07 minutes

  //>>>>>>>>>>>>>>>>>>>>>>>>>>>>>>>>>>>//
  //    Loading displacement 6 of 10   //
  //<<<<<<<<<<<<<<<<<<<<<<<<<<<<<<<<<<<//

*** tstart() called on ds1.sherrill.chemistry.gatech.edu
*** at Mon Mar 14 15:28:59 2016


         ---------------------------------------------------------
                                   SCF
            by Justin Turney, Rob Parrish, and Andy Simmonett
                              RHF Reference
                        1 Threads,    250 MiB Core
         ---------------------------------------------------------

  ==> Geometry <==

    Molecular point group: c2
    Full point group: C2

    Geometry (in Angstrom), charge = -1, multiplicity = 1:

       Center              X                  Y                   Z               Mass       
    ------------   -----------------  -----------------  -----------------  -----------------
           C          0.000000000000     0.000000000000     1.119905811674    12.000000000000
           N          0.000000000000     0.000000000000     2.310087277449    14.003074004780
           C          0.000000000000     0.000000000000    -0.231085072523    12.000000000000
           C         -0.781617287494     0.000341983963    -1.483869398827    12.000000000000
           C          0.781617287494    -0.000341983963    -1.483869398827    12.000000000000
           H         -1.273899712839    -0.900794675125    -1.834642356152     1.007825032070
           H         -1.275076382803     0.899128324059    -1.837277950484     1.007825032070
           H          1.273899712839     0.900794675125    -1.834642356152     1.007825032070
           H          1.275076382803    -0.899128324059    -1.837277950484     1.007825032070

  Running in c2 symmetry.

  Rotational constants: A =      0.68876  B =      0.10528  C =      0.09467 [cm^-1]
  Rotational constants: A =  20648.43430  B =   3156.31167  C =   2838.21594 [MHz]
  Nuclear repulsion =  136.459267928354421

  Charge       = -1
  Multiplicity = 1
  Electrons    = 36
  Nalpha       = 18
  Nbeta        = 18

  ==> Algorithm <==

  SCF Algorithm Type is DF.
  DIIS enabled.
  MOM disabled.
  Fractional occupation disabled.
  Guess Type is CORE.
  Energy threshold   = 1.00e-10
  Density threshold  = 1.00e-11
  Integral threshold = 0.00e+00

  ==> Primary Basis <==

  Basis Set: DZ
    Number of shells: 38
    Number of basis function: 58
    Number of Cartesian functions: 58
    Spherical Harmonics?: false
    Max angular momentum: 1

  ==> Pre-Iterations <==

   -------------------------------------------------------
    Irrep   Nso     Nmo     Nalpha   Nbeta   Ndocc  Nsocc
   -------------------------------------------------------
     A         32      32       0       0       0       0
     B         26      26       0       0       0       0
   -------------------------------------------------------
    Total      58      58      18      18      18       0
   -------------------------------------------------------

  ==> Integral Setup <==

  ==> DFJK: Density-Fitted J/K Matrices <==

    J tasked:                  Yes
    K tasked:                  Yes
    wK tasked:                  No
    OpenMP threads:              1
    Integrals threads:           1
    Memory (MB):               178
    Algorithm:                Core
    Integral Cache:           NONE
    Schwarz Cutoff:          1E-12
    Fitting Condition:       1E-12

   => Auxiliary Basis Set <=

  Basis Set: 
    Number of shells: 149
    Number of basis function: 529
    Number of Cartesian functions: 529
    Spherical Harmonics?: false
    Max angular momentum: 4

  Minimum eigenvalue in the overlap matrix is 2.5827917842E-03.
  Using Symmetric Orthogonalization.
  SCF Guess: Core (One-Electron) Hamiltonian.

  ==> Iterations <==

                           Total Energy        Delta E     RMS |[F,P]|

   @DF-RHF iter   1:  -179.44486372252774   -1.79445e+02   1.46473e-01 
   @DF-RHF iter   2:  -187.14920685756923   -7.70434e+00   8.42713e-02 DIIS
   @DF-RHF iter   3:  -197.70263863056991   -1.05534e+01   8.20170e-02 DIIS
   @DF-RHF iter   4:  -207.34233689412983   -9.63970e+00   2.31420e-02 DIIS
   @DF-RHF iter   5:  -207.87348872040403   -5.31152e-01   1.42002e-02 DIIS
   @DF-RHF iter   6:  -208.02405496209352   -1.50566e-01   6.49001e-03 DIIS
   @DF-RHF iter   7:  -208.06786834550221   -4.38134e-02   1.22276e-03 DIIS
   @DF-RHF iter   8:  -208.06946817320753   -1.59983e-03   4.06144e-04 DIIS
   @DF-RHF iter   9:  -208.06972184791746   -2.53675e-04   1.10904e-04 DIIS
   @DF-RHF iter  10:  -208.06975736074659   -3.55128e-05   8.11514e-05 DIIS
   @DF-RHF iter  11:  -208.06976848349538   -1.11227e-05   2.46391e-05 DIIS
   @DF-RHF iter  12:  -208.06977136269725   -2.87920e-06   9.98736e-06 DIIS
   @DF-RHF iter  13:  -208.06977180330770   -4.40610e-07   3.78940e-06 DIIS
   @DF-RHF iter  14:  -208.06977183565195   -3.23442e-08   3.69503e-07 DIIS
   @DF-RHF iter  15:  -208.06977183606003   -4.08079e-10   6.67512e-08 DIIS
   @DF-RHF iter  16:  -208.06977183607157   -1.15392e-11   1.43870e-08 DIIS
   @DF-RHF iter  17:  -208.06977183607202   -4.54747e-13   2.98107e-09 DIIS
   @DF-RHF iter  18:  -208.06977183607214   -1.13687e-13   9.13839e-10 DIIS
   @DF-RHF iter  19:  -208.06977183607214    0.00000e+00   4.17240e-10 DIIS
   @DF-RHF iter  20:  -208.06977183607208    5.68434e-14   1.98859e-10 DIIS
   @DF-RHF iter  21:  -208.06977183607202    5.68434e-14   7.56303e-11 DIIS
   @DF-RHF iter  22:  -208.06977183607208   -5.68434e-14   1.30109e-11 DIIS
   @DF-RHF iter  23:  -208.06977183607214   -5.68434e-14   2.93340e-12 DIIS

  ==> Post-Iterations <==

    Orbital Energies (a.u.)
    -----------------------

    Doubly Occupied:                                                      

       1A    -15.334336     2A    -11.080435     3A    -11.069695  
       1B    -11.069183     4A    -11.010569     5A     -0.988568  
       6A     -0.939719     7A     -0.682552     2B     -0.653903  
       8A     -0.505521     3B     -0.464819     9A     -0.343363  
      10A     -0.318109     4B     -0.303988     5B     -0.279568  
      11A     -0.250086     6B     -0.188544     7B     -0.054762  

    Virtual:                                                              

       8B      0.377069     9B      0.399137    12A      0.404387  
      13A      0.457251    10B      0.458462    11B      0.519531  
      14A      0.524828    12B      0.564060    15A      0.593246  
      16A      0.611908    13B      0.620048    14B      0.628183  
      17A      0.662725    18A      0.674576    15B      0.713385  
      16B      0.723785    19A      0.782742    20A      0.814277  
      17B      0.819448    18B      0.861668    19B      0.888032  
      20B      0.989338    21A      1.032978    21B      1.096463  
      22A      1.122385    22B      1.123118    23A      1.334975  
      23B      1.409641    24A      1.540173    25A      1.581112  
      24B      1.609160    26A      1.625772    27A      1.673381  
      25B      1.737048    28A      1.871325    29A     23.959659  
      30A     24.163021    26B     24.202230    31A     24.347129  
      32A     33.416844  

    Final Occupation by Irrep:
              A     B 
    DOCC [    11,    7 ]

  Energy converged.

  @DF-RHF Final Energy:  -208.06977183607214

   => Energetics <=

    Nuclear Repulsion Energy =            136.4592679283544214
    One-Electron Energy =                -557.9826397084857490
    Two-Electron Energy =                 213.4535999440591922
    DFT Exchange-Correlation Energy =       0.0000000000000000
    Empirical Dispersion Energy =           0.0000000000000000
    PCM Polarization Energy =               0.0000000000000000
    EFP Energy =                            0.0000000000000000
    Total Energy =                       -208.0697718360721638

    Alert: EFP and PCM quantities not currently incorporated into SCF psivars.

Properties will be evaluated at   0.000000,   0.000000,   0.000000 Bohr
  ==> Properties <==


Properties computed using the SCF density matrix

  Nuclear Dipole Moment: (a.u.)
     X:     0.0000      Y:     0.0000      Z:    -6.8913

  Electronic Dipole Moment: (a.u.)
     X:     0.0000      Y:     0.0000      Z:     4.7761

  Dipole Moment: (a.u.)
     X:     0.0000      Y:     0.0000      Z:    -2.1153     Total:     2.1153

  Dipole Moment: (Debye)
     X:     0.0000      Y:     0.0000      Z:    -5.3764     Total:     5.3764


  Saving occupied orbitals to File 180.

*** tstop() called on ds1.sherrill.chemistry.gatech.edu at Mon Mar 14 15:28:59 2016
Module time:
	user time   =       0.60 seconds =       0.01 minutes
	system time =      -0.00 seconds =      -0.00 minutes
	total time  =          0 seconds =       0.00 minutes
Total time:
	user time   =       3.99 seconds =       0.07 minutes
	system time =       0.05 seconds =       0.00 minutes
	total time  =          4 seconds =       0.07 minutes

  //>>>>>>>>>>>>>>>>>>>>>>>>>>>>>>>>>>>//
  //    Loading displacement 7 of 10   //
  //<<<<<<<<<<<<<<<<<<<<<<<<<<<<<<<<<<<//

*** tstart() called on ds1.sherrill.chemistry.gatech.edu
*** at Mon Mar 14 15:28:59 2016


         ---------------------------------------------------------
                                   SCF
            by Justin Turney, Rob Parrish, and Andy Simmonett
                              RHF Reference
                        1 Threads,    250 MiB Core
         ---------------------------------------------------------

  ==> Geometry <==

    Molecular point group: c2
    Full point group: C2

    Geometry (in Angstrom), charge = -1, multiplicity = 1:

       Center              X                  Y                   Z               Mass       
    ------------   -----------------  -----------------  -----------------  -----------------
           C          0.000000000000     0.000000000000     1.119905811674    12.000000000000
           N          0.000000000000     0.000000000000     2.310087277449    14.003074004780
           C          0.000000000000     0.000000000000    -0.231085072523    12.000000000000
           C         -0.781617287494    -0.000341983963    -1.483869398827    12.000000000000
           C          0.781617287494     0.000341983963    -1.483869398827    12.000000000000
           H         -1.275076382803    -0.899128324059    -1.837277950484     1.007825032070
           H         -1.273899712839     0.900794675125    -1.834642356152     1.007825032070
           H          1.275076382803     0.899128324059    -1.837277950484     1.007825032070
           H          1.273899712839    -0.900794675125    -1.834642356152     1.007825032070

  Running in c2 symmetry.

  Rotational constants: A =      0.68876  B =      0.10528  C =      0.09467 [cm^-1]
  Rotational constants: A =  20648.43430  B =   3156.31167  C =   2838.21594 [MHz]
  Nuclear repulsion =  136.459267928354393

  Charge       = -1
  Multiplicity = 1
  Electrons    = 36
  Nalpha       = 18
  Nbeta        = 18

  ==> Algorithm <==

  SCF Algorithm Type is DF.
  DIIS enabled.
  MOM disabled.
  Fractional occupation disabled.
  Guess Type is CORE.
  Energy threshold   = 1.00e-10
  Density threshold  = 1.00e-11
  Integral threshold = 0.00e+00

  ==> Primary Basis <==

  Basis Set: DZ
    Number of shells: 38
    Number of basis function: 58
    Number of Cartesian functions: 58
    Spherical Harmonics?: false
    Max angular momentum: 1

  ==> Pre-Iterations <==

   -------------------------------------------------------
    Irrep   Nso     Nmo     Nalpha   Nbeta   Ndocc  Nsocc
   -------------------------------------------------------
     A         32      32       0       0       0       0
     B         26      26       0       0       0       0
   -------------------------------------------------------
    Total      58      58      18      18      18       0
   -------------------------------------------------------

  ==> Integral Setup <==

  ==> DFJK: Density-Fitted J/K Matrices <==

    J tasked:                  Yes
    K tasked:                  Yes
    wK tasked:                  No
    OpenMP threads:              1
    Integrals threads:           1
    Memory (MB):               178
    Algorithm:                Core
    Integral Cache:           NONE
    Schwarz Cutoff:          1E-12
    Fitting Condition:       1E-12

   => Auxiliary Basis Set <=

  Basis Set: 
    Number of shells: 149
    Number of basis function: 529
    Number of Cartesian functions: 529
    Spherical Harmonics?: false
    Max angular momentum: 4

  Minimum eigenvalue in the overlap matrix is 2.5827917842E-03.
  Using Symmetric Orthogonalization.
  SCF Guess: Core (One-Electron) Hamiltonian.

  ==> Iterations <==

                           Total Energy        Delta E     RMS |[F,P]|

   @DF-RHF iter   1:  -179.44486372237253   -1.79445e+02   1.46473e-01 
   @DF-RHF iter   2:  -187.14920685786996   -7.70434e+00   8.42713e-02 DIIS
   @DF-RHF iter   3:  -197.70263863048871   -1.05534e+01   8.20170e-02 DIIS
   @DF-RHF iter   4:  -207.34233689397166   -9.63970e+00   2.31420e-02 DIIS
   @DF-RHF iter   5:  -207.87348872021397   -5.31152e-01   1.42002e-02 DIIS
   @DF-RHF iter   6:  -208.02405496188879   -1.50566e-01   6.49001e-03 DIIS
   @DF-RHF iter   7:  -208.06786834528486   -4.38134e-02   1.22276e-03 DIIS
   @DF-RHF iter   8:  -208.06946817298979   -1.59983e-03   4.06144e-04 DIIS
   @DF-RHF iter   9:  -208.06972184769950   -2.53675e-04   1.10904e-04 DIIS
   @DF-RHF iter  10:  -208.06975736052880   -3.55128e-05   8.11514e-05 DIIS
   @DF-RHF iter  11:  -208.06976848327753   -1.11227e-05   2.46391e-05 DIIS
   @DF-RHF iter  12:  -208.06977136247957   -2.87920e-06   9.98736e-06 DIIS
   @DF-RHF iter  13:  -208.06977180309002   -4.40610e-07   3.78940e-06 DIIS
   @DF-RHF iter  14:  -208.06977183543410   -3.23441e-08   3.69503e-07 DIIS
   @DF-RHF iter  15:  -208.06977183584212   -4.08022e-10   6.67512e-08 DIIS
   @DF-RHF iter  16:  -208.06977183585377   -1.16529e-11   1.43870e-08 DIIS
   @DF-RHF iter  17:  -208.06977183585411   -3.41061e-13   2.98107e-09 DIIS
   @DF-RHF iter  18:  -208.06977183585423   -1.13687e-13   9.13839e-10 DIIS
   @DF-RHF iter  19:  -208.06977183585411    1.13687e-13   4.17240e-10 DIIS
   @DF-RHF iter  20:  -208.06977183585417   -5.68434e-14   1.98859e-10 DIIS
   @DF-RHF iter  21:  -208.06977183585440   -2.27374e-13   7.56312e-11 DIIS
   @DF-RHF iter  22:  -208.06977183585423    1.70530e-13   1.30104e-11 DIIS
   @DF-RHF iter  23:  -208.06977183585434   -1.13687e-13   2.93326e-12 DIIS

  ==> Post-Iterations <==

    Orbital Energies (a.u.)
    -----------------------

    Doubly Occupied:                                                      

       1A    -15.334336     2A    -11.080435     3A    -11.069695  
       1B    -11.069183     4A    -11.010569     5A     -0.988568  
       6A     -0.939719     7A     -0.682552     2B     -0.653903  
       8A     -0.505521     3B     -0.464819     9A     -0.343363  
      10A     -0.318109     4B     -0.303988     5B     -0.279568  
      11A     -0.250086     6B     -0.188544     7B     -0.054762  

    Virtual:                                                              

       8B      0.377069     9B      0.399137    12A      0.404387  
      13A      0.457251    10B      0.458462    11B      0.519531  
      14A      0.524828    12B      0.564060    15A      0.593246  
      16A      0.611908    13B      0.620048    14B      0.628183  
      17A      0.662725    18A      0.674576    15B      0.713385  
      16B      0.723785    19A      0.782742    20A      0.814277  
      17B      0.819448    18B      0.861668    19B      0.888032  
      20B      0.989338    21A      1.032978    21B      1.096463  
      22A      1.122385    22B      1.123118    23A      1.334975  
      23B      1.409641    24A      1.540173    25A      1.581112  
      24B      1.609160    26A      1.625772    27A      1.673381  
      25B      1.737048    28A      1.871325    29A     23.959659  
      30A     24.163021    26B     24.202230    31A     24.347129  
      32A     33.416844  

    Final Occupation by Irrep:
              A     B 
    DOCC [    11,    7 ]

  Energy converged.

  @DF-RHF Final Energy:  -208.06977183585434

   => Energetics <=

    Nuclear Repulsion Energy =            136.4592679283543930
    One-Electron Energy =                -557.9826397084742666
    Two-Electron Energy =                 213.4535999442655338
    DFT Exchange-Correlation Energy =       0.0000000000000000
    Empirical Dispersion Energy =           0.0000000000000000
    PCM Polarization Energy =               0.0000000000000000
    EFP Energy =                            0.0000000000000000
    Total Energy =                       -208.0697718358543398

    Alert: EFP and PCM quantities not currently incorporated into SCF psivars.

Properties will be evaluated at   0.000000,   0.000000,   0.000000 Bohr
  ==> Properties <==


Properties computed using the SCF density matrix

  Nuclear Dipole Moment: (a.u.)
     X:     0.0000      Y:     0.0000      Z:    -6.8913

  Electronic Dipole Moment: (a.u.)
     X:     0.0000      Y:     0.0000      Z:     4.7761

  Dipole Moment: (a.u.)
     X:     0.0000      Y:     0.0000      Z:    -2.1153     Total:     2.1153

  Dipole Moment: (Debye)
     X:     0.0000      Y:     0.0000      Z:    -5.3764     Total:     5.3764


  Saving occupied orbitals to File 180.

*** tstop() called on ds1.sherrill.chemistry.gatech.edu at Mon Mar 14 15:29:00 2016
Module time:
	user time   =       0.59 seconds =       0.01 minutes
	system time =       0.01 seconds =       0.00 minutes
	total time  =          1 seconds =       0.02 minutes
Total time:
	user time   =       4.64 seconds =       0.08 minutes
	system time =       0.06 seconds =       0.00 minutes
[...]

                  25                    26        

    0      0.000000000000000     0.000000000000000
    1      0.000000000000000     0.000000000000000
    2      0.000000000000000    -0.001549173526589
    3      0.000000000000000     0.000000000000000
    4      0.000000000000000     0.000000000000000
    5      0.000000000000000    -0.000301047794509
    6      0.000000000000000     0.000000000000000
    7      0.000000000000000     0.000000000000000
    8      0.000000000000000    -0.003168869955863
    9      0.000000000000000     0.048242433608199
   10      0.000000000000000     0.000000000000000
   11      0.000000000000000    -0.010714468188595
   12      0.000000000000000    -0.048242433608199
   13      0.000000000000000     0.000000000000000
   14      0.000000000000000    -0.010714468188595
   15      0.000000000000000     0.000000000000000
   16      0.000000000000000     0.000000000000000
   17      0.000000000000000     0.022836410416134
   18      0.000000000000000     0.000000000000000
   19      0.000000000000000     0.000000000000000
   20      0.000000000000000     0.022836410416134
   21      0.000000000000000     0.000000000000000
   22      0.000000000000000     0.000000000000000
   23      0.000000000000000     0.022836410416134
   24      0.000000000000000     0.000000000000000
   25      0.000000000000000     0.000000000000000
   26      0.000000000000000     0.022836410416134

	Force Constants in cartesian coordinates.

                   0                     1                     2                     3                     4        

    0      0.000000000000000     0.000000000000000     0.000000000000000     0.000000000000000     0.000000000000000
    1      0.000000000000000     0.000000000000000     0.000000000000000     0.000000000000000     0.000000000000000
    2      0.000000000000000     0.000000000000000     0.137277801199208     0.000000000000000     0.000000000000000
    3      0.000000000000000     0.000000000000000     0.000000000000000     0.000000000000000     0.000000000000000
    4      0.000000000000000     0.000000000000000     0.000000000000000     0.000000000000000     0.000000000000000
    5      0.000000000000000     0.000000000000000    -0.026710858989164     0.000000000000000     0.000000000000000
    6      0.000000000000000     0.000000000000000     0.000000000000000     0.000000000000000     0.000000000000000
    7      0.000000000000000     0.000000000000000     0.000000000000000     0.000000000000000     0.000000000000000
    8      0.000000000000000     0.000000000000000    -0.013301230904360     0.000000000000000     0.000000000000000
    9      0.000000000000000     0.000000000000000     0.006998311509272     0.000000000000000     0.000000000000000
   10      0.000000000000000     0.000000000000000     0.000000000000000     0.000000000000000     0.000000000000000
   11      0.000000000000000     0.000000000000000    -0.037857955459260     0.000000000000000     0.000000000000000
   12      0.000000000000000     0.000000000000000    -0.006998311509272     0.000000000000000     0.000000000000000
   13      0.000000000000000     0.000000000000000     0.000000000000000     0.000000000000000     0.000000000000000
   14      0.000000000000000     0.000000000000000    -0.037857955459260     0.000000000000000     0.000000000000000
   15      0.000000000000000     0.000000000000000     0.000000000000000     0.000000000000000     0.000000000000000
   16      0.000000000000000     0.000000000000000     0.000000000000000     0.000000000000000     0.000000000000000
   17      0.000000000000000     0.000000000000000    -0.005387450096791     0.000000000000000     0.000000000000000
   18      0.000000000000000     0.000000000000000     0.000000000000000     0.000000000000000     0.000000000000000
   19      0.000000000000000     0.000000000000000     0.000000000000000     0.000000000000000     0.000000000000000
   20      0.000000000000000     0.000000000000000    -0.005387450096791     0.000000000000000     0.000000000000000
   21      0.000000000000000     0.000000000000000     0.000000000000000     0.000000000000000     0.000000000000000
   22      0.000000000000000     0.000000000000000     0.000000000000000     0.000000000000000     0.000000000000000
   23      0.000000000000000     0.000000000000000    -0.005387450096791     0.000000000000000     0.000000000000000
   24      0.000000000000000     0.000000000000000     0.000000000000000     0.000000000000000     0.000000000000000
   25      0.000000000000000     0.000000000000000     0.000000000000000     0.000000000000000     0.000000000000000
   26      0.000000000000000     0.000000000000000    -0.005387450096791     0.000000000000000     0.000000000000000

                   5                     6                     7                     8                     9        

    0      0.000000000000000     0.000000000000000     0.000000000000000     0.000000000000000     0.000000000000000
    1      0.000000000000000     0.000000000000000     0.000000000000000     0.000000000000000     0.000000000000000
    2     -0.026710858989164     0.000000000000000     0.000000000000000    -0.013301230904360     0.006998311509272
    3      0.000000000000000     0.000000000000000     0.000000000000000     0.000000000000000     0.000000000000000
    4      0.000000000000000     0.000000000000000     0.000000000000000     0.000000000000000     0.000000000000000
    5     -0.006226844053741     0.000000000000000     0.000000000000000     0.029188401740799     0.005440886379879
    6      0.000000000000000     0.000000000000000     0.000000000000000     0.000000000000000     0.000000000000000
    7      0.000000000000000     0.000000000000000     0.000000000000000     0.000000000000000     0.000000000000000
    8      0.029188401740799     0.000000000000000     0.000000000000000     0.401767477162306    -0.042563240681557
    9      0.005440886379879     0.000000000000000     0.000000000000000    -0.042563240681557     1.952046302876592
   10      0.000000000000000     0.000000000000000     0.000000000000000     0.000000000000000     0.000000000000000
   11      0.004136531419776     0.000000000000000     0.000000000000000    -0.186787018691528    -0.320476508214631
   12     -0.005440886379879     0.000000000000000     0.000000000000000     0.042563240681557    -1.952046302876592
   13      0.000000000000000     0.000000000000000     0.000000000000000     0.000000000000000     0.000000000000000
   14      0.004136531419776     0.000000000000000     0.000000000000000    -0.186787018691528    -0.320476508214631
   15      0.000000000000000     0.000000000000000     0.000000000000000     0.000000000000000     0.000000000000000
   16      0.000000000000000     0.000000000000000     0.000000000000000     0.000000000000000     0.000000000000000
   17     -0.001130940384362     0.000000000000000     0.000000000000000    -0.011020152653922     0.167769264805418
   18      0.000000000000000     0.000000000000000     0.000000000000000     0.000000000000000     0.000000000000000
   19      0.000000000000000     0.000000000000000     0.000000000000000     0.000000000000000     0.000000000000000
   20     -0.001130940384362     0.000000000000000     0.000000000000000    -0.011020152653922     0.167769264805418
   21      0.000000000000000     0.000000000000000     0.000000000000000     0.000000000000000     0.000000000000000
   22      0.000000000000000     0.000000000000000     0.000000000000000     0.000000000000000     0.000000000000000
   23     -0.001130940384362     0.000000000000000     0.000000000000000    -0.011020152653922     0.167769264805418
   24      0.000000000000000     0.000000000000000     0.000000000000000     0.000000000000000     0.000000000000000
   25      0.000000000000000     0.000000000000000     0.000000000000000     0.000000000000000     0.000000000000000
   26     -0.001130940384362     0.000000000000000     0.000000000000000    -0.011020152653922     0.167769264805418

                  10                    11                    12                    13                    14        

    0      0.000000000000000     0.000000000000000     0.000000000000000     0.000000000000000     0.000000000000000
    1      0.000000000000000     0.000000000000000     0.000000000000000     0.000000000000000     0.000000000000000
    2      0.000000000000000    -0.037857955459260    -0.006998311509272     0.000000000000000    -0.037857955459260
    3      0.000000000000000     0.000000000000000     0.000000000000000     0.000000000000000     0.000000000000000
    4      0.000000000000000     0.000000000000000     0.000000000000000     0.000000000000000     0.000000000000000
    5      0.000000000000000     0.004136531419776    -0.005440886379879     0.000000000000000     0.004136531419776
    6      0.000000000000000     0.000000000000000     0.000000000000000     0.000000000000000     0.000000000000000
    7      0.000000000000000     0.000000000000000     0.000000000000000     0.000000000000000     0.000000000000000
    8      0.000000000000000    -0.186787018691528     0.042563240681557     0.000000000000000    -0.186787018691528
    9      0.000000000000000    -0.320476508214631    -1.952046302876592     0.000000000000000    -0.320476508214631
   10      0.000000000000000     0.000000000000000     0.000000000000000     0.000000000000000     0.000000000000000
   11      0.000000000000000     0.184776102470445     0.320476508214631     0.000000000000000     0.184776102470445
   12      0.000000000000000     0.320476508214631     1.952046302876592     0.000000000000000     0.320476508214631
   13      0.000000000000000     0.000000000000000     0.000000000000000     0.000000000000000     0.000000000000000
   14      0.000000000000000     0.184776102470445     0.320476508214631     0.000000000000000     0.184776102470445
   15      0.000000000000000     0.000000000000000     0.000000000000000     0.000000000000000     0.000000000000000
   16      0.000000000000000     0.000000000000000     0.000000000000000     0.000000000000000     0.000000000000000
   17      0.000000000000000    -0.037260940552470    -0.167769264805418     0.000000000000000    -0.037260940552470
   18      0.000000000000000     0.000000000000000     0.000000000000000     0.000000000000000     0.000000000000000
   19      0.000000000000000     0.000000000000000     0.000000000000000     0.000000000000000     0.000000000000000
   20      0.000000000000000    -0.037260940552470    -0.167769264805418     0.000000000000000    -0.037260940552470
   21      0.000000000000000     0.000000000000000     0.000000000000000     0.000000000000000     0.000000000000000
   22      0.000000000000000     0.000000000000000     0.000000000000000     0.000000000000000     0.000000000000000
   23      0.000000000000000    -0.037260940552470    -0.167769264805418     0.000000000000000    -0.037260940552470
   24      0.000000000000000     0.000000000000000     0.000000000000000     0.000000000000000     0.000000000000000
   25      0.000000000000000     0.000000000000000     0.000000000000000     0.000000000000000     0.000000000000000
   26      0.000000000000000    -0.037260940552470    -0.167769264805418     0.000000000000000    -0.037260940552470

                  15                    16                    17                    18                    19        

    0      0.000000000000000     0.000000000000000     0.000000000000000     0.000000000000000     0.000000000000000
    1      0.000000000000000     0.000000000000000     0.000000000000000     0.000000000000000     0.000000000000000
    2      0.000000000000000     0.000000000000000    -0.005387450096791     0.000000000000000     0.000000000000000
    3      0.000000000000000     0.000000000000000     0.000000000000000     0.000000000000000     0.000000000000000
    4      0.000000000000000     0.000000000000000     0.000000000000000     0.000000000000000     0.000000000000000
    5      0.000000000000000     0.000000000000000    -0.001130940384362     0.000000000000000     0.000000000000000
    6      0.000000000000000     0.000000000000000     0.000000000000000     0.000000000000000     0.000000000000000
    7      0.000000000000000     0.000000000000000     0.000000000000000     0.000000000000000     0.000000000000000
    8      0.000000000000000     0.000000000000000    -0.011020152653922     0.000000000000000     0.000000000000000
    9      0.000000000000000     0.000000000000000     0.167769264805418     0.000000000000000     0.000000000000000
   10      0.000000000000000     0.000000000000000     0.000000000000000     0.000000000000000     0.000000000000000
   11      0.000000000000000     0.000000000000000    -0.037260940552470     0.000000000000000     0.000000000000000
   12      0.000000000000000     0.000000000000000    -0.167769264805418     0.000000000000000     0.000000000000000
   13      0.000000000000000     0.000000000000000     0.000000000000000     0.000000000000000     0.000000000000000
   14      0.000000000000000     0.000000000000000    -0.037260940552470     0.000000000000000     0.000000000000000
   15      0.000000000000000     0.000000000000000     0.000000000000000     0.000000000000000     0.000000000000000
   16      0.000000000000000     0.000000000000000     0.000000000000000     0.000000000000000     0.000000000000000
   17      0.000000000000000     0.000000000000000     0.023015106060004     0.000000000000000     0.000000000000000
   18      0.000000000000000     0.000000000000000     0.000000000000000     0.000000000000000     0.000000000000000
   19      0.000000000000000     0.000000000000000     0.000000000000000     0.000000000000000     0.000000000000000
   20      0.000000000000000     0.000000000000000     0.023015106060004     0.000000000000000     0.000000000000000
   21      0.000000000000000     0.000000000000000     0.000000000000000     0.000000000000000     0.000000000000000
   22      0.000000000000000     0.000000000000000     0.000000000000000     0.000000000000000     0.000000000000000
   23      0.000000000000000     0.000000000000000     0.023015106060004     0.000000000000000     0.000000000000000
   24      0.000000000000000     0.000000000000000     0.000000000000000     0.000000000000000     0.000000000000000
   25      0.000000000000000     0.000000000000000     0.000000000000000     0.000000000000000     0.000000000000000
   26      0.000000000000000     0.000000000000000     0.023015106060004     0.000000000000000     0.000000000000000

                  20                    21                    22                    23                    24        

    0      0.000000000000000     0.000000000000000     0.000000000000000     0.000000000000000     0.000000000000000
    1      0.000000000000000     0.000000000000000     0.000000000000000     0.000000000000000     0.000000000000000
    2     -0.005387450096791     0.000000000000000     0.000000000000000    -0.005387450096791     0.000000000000000
    3      0.000000000000000     0.000000000000000     0.000000000000000     0.000000000000000     0.000000000000000
    4      0.000000000000000     0.000000000000000     0.000000000000000     0.000000000000000     0.000000000000000
    5     -0.001130940384362     0.000000000000000     0.000000000000000    -0.001130940384362     0.000000000000000
    6      0.000000000000000     0.000000000000000     0.000000000000000     0.000000000000000     0.000000000000000
    7      0.000000000000000     0.000000000000000     0.000000000000000     0.000000000000000     0.000000000000000
    8     -0.011020152653922     0.000000000000000     0.000000000000000    -0.011020152653922     0.000000000000000
    9      0.167769264805418     0.000000000000000     0.000000000000000     0.167769264805418     0.000000000000000
   10      0.000000000000000     0.000000000000000     0.000000000000000     0.000000000000000     0.000000000000000
   11     -0.037260940552470     0.000000000000000     0.000000000000000    -0.037260940552470     0.000000000000000
   12     -0.167769264805418     0.000000000000000     0.000000000000000    -0.167769264805418     0.000000000000000
   13      0.000000000000000     0.000000000000000     0.000000000000000     0.000000000000000     0.000000000000000
   14     -0.037260940552470     0.000000000000000     0.000000000000000    -0.037260940552470     0.000000000000000
   15      0.000000000000000     0.000000000000000     0.000000000000000     0.000000000000000     0.000000000000000
   16      0.000000000000000     0.000000000000000     0.000000000000000     0.000000000000000     0.000000000000000
   17      0.023015106060004     0.000000000000000     0.000000000000000     0.023015106060004     0.000000000000000
   18      0.000000000000000     0.000000000000000     0.000000000000000     0.000000000000000     0.000000000000000
   19      0.000000000000000     0.000000000000000     0.000000000000000     0.000000000000000     0.000000000000000
   20      0.023015106060004     0.000000000000000     0.000000000000000     0.023015106060004     0.000000000000000
   21      0.000000000000000     0.000000000000000     0.000000000000000     0.000000000000000     0.000000000000000
   22      0.000000000000000     0.000000000000000     0.000000000000000     0.000000000000000     0.000000000000000
   23      0.023015106060004     0.000000000000000     0.000000000000000     0.023015106060004     0.000000000000000
   24      0.000000000000000     0.000000000000000     0.000000000000000     0.000000000000000     0.000000000000000
   25      0.000000000000000     0.000000000000000     0.000000000000000     0.000000000000000     0.000000000000000
   26      0.023015106060004     0.000000000000000     0.000000000000000     0.023015106060004     0.000000000000000

                  25                    26        

    0      0.000000000000000     0.000000000000000
    1      0.000000000000000     0.000000000000000
    2      0.000000000000000    -0.005387450096791
    3      0.000000000000000     0.000000000000000
    4      0.000000000000000     0.000000000000000
    5      0.000000000000000    -0.001130940384362
    6      0.000000000000000     0.000000000000000
    7      0.000000000000000     0.000000000000000
    8      0.000000000000000    -0.011020152653922
    9      0.000000000000000     0.167769264805418
   10      0.000000000000000     0.000000000000000
   11      0.000000000000000    -0.037260940552470
   12      0.000000000000000    -0.167769264805418
   13      0.000000000000000     0.000000000000000
   14      0.000000000000000    -0.037260940552470
   15      0.000000000000000     0.000000000000000
   16      0.000000000000000     0.000000000000000
   17      0.000000000000000     0.023015106060004
   18      0.000000000000000     0.000000000000000
   19      0.000000000000000     0.000000000000000
   20      0.000000000000000     0.023015106060004
   21      0.000000000000000     0.000000000000000
   22      0.000000000000000     0.000000000000000
   23      0.000000000000000     0.023015106060004
   24      0.000000000000000     0.000000000000000
   25      0.000000000000000     0.000000000000000
   26      0.000000000000000     0.023015106060004

-------------------------------------------------------------

 #  #
 Irrep: 1
      1: -185.3783877
      2: 600.8854815
      3: 895.6079092
      4: 1160.0957071
      5: 3244.2527972


            *********************************************
            * Thermodynamic Analysis by R.A. King, 2012 *
            *********************************************

    Full point group: Cnv (C2v)

    Not all frequencies have been computed, skipping thermodynamic analysis.
	B2 finite-diffence frequencies with 5-pt. formula to 1 cm^-1......PASSED

*** PSI4 exiting successfully. Buy a developer a beer!
