
    -----------------------------------------------------------------------
          Psi4: An Open-Source Ab Initio Electronic Structure Package
                               Psi4 1.1rc3.dev5 

                         Git: Rev {master} 3fbd859 


    R. M. Parrish, L. A. Burns, D. G. A. Smith, A. C. Simmonett,
    A. E. DePrince III, E. G. Hohenstein, U. Bozkaya, A. Yu. Sokolov,
    R. Di Remigio, R. M. Richard, J. F. Gonthier, A. M. James,
    H. R. McAlexander, A. Kumar, M. Saitow, X. Wang, B. P. Pritchard,
    P. Verma, H. F. Schaefer III, K. Patkowski, R. A. King, E. F. Valeev,
    F. A. Evangelista, J. M. Turney, T. D. Crawford, and C. D. Sherrill,
    J. Chem. Theory Comput. in press (2017).
    (doi: 10.1021/acs.jctc.7b00174)

    -----------------------------------------------------------------------


    Psi4 started on: Monday, 15 May 2017 03:36PM

    Process ID:  14412
    PSIDATADIR: /home/psilocaluser/gits/hrw-direct/objdir4/stage/usr/local/psi4/share/psi4
    Memory:     500.0 MiB
    Threads:    1
    
  ==> Input File <==

--------------------------------------------------------------------------
#! SCF DZ finite difference frequencies by energies for C4NH4

molecule c4nh4 {
  units angstrom
  -1 1
    C         0.000000000000     0.000000000000     1.119905811674
    N         0.000000000000     0.000000000000     2.310087277449
    C         0.000000000000     0.000000000000    -0.231085072523
    C        -0.781617287494     0.000000000000    -1.483869398827
    C         0.781617287494     0.000000000000    -1.483869398827
    H        -1.274488047821    -0.899961499592    -1.835960153318
    H        -1.274488047821     0.899961499592    -1.835960153318
    H         1.274488047821     0.899961499592    -1.835960153318
    H         1.274488047821    -0.899961499592    -1.835960153318
}

#These are the old reference values
## Test against analytic second derivatives from PSI3 (for now).
#anal_freqs.set(0, 0,  -184.0613)
#anal_freqs.set(0, 1,   236.5665)
#anal_freqs.set(0, 2,   601.8179)
#anal_freqs.set(0, 3,   663.5969)
#anal_freqs.set(0, 4,   667.0854)
#anal_freqs.set(0, 5,   895.5586)
#anal_freqs.set(0, 6,  1008.6894)
#anal_freqs.set(0, 7,  1008.9522)
#anal_freqs.set(0, 8,  1046.9718)
#anal_freqs.set(0, 9,  1160.1266)
#anal_freqs.set(0,10,  1161.1594)
#anal_freqs.set(0,11,  1215.7027)
#anal_freqs.set(0,12,  1225.2493)
#anal_freqs.set(0,13,  1600.6695)
#anal_freqs.set(0,14,  1622.1779)
#anal_freqs.set(0,15,  1673.4861)
#anal_freqs.set(0,16,  2239.4185)
#anal_freqs.set(0,17,  3171.5147)
#anal_freqs.set(0,18,  3182.4027)
#anal_freqs.set(0,20,  3244.2997)

#These are the new reference values, they are the finite difference results
ref_freqs = psi4.Vector(21)
ref_freqs.set(0, 0, -185.3806810)
ref_freqs.set(0, 1,  236.6736194)
ref_freqs.set(0, 2,  600.8861278)
ref_freqs.set(0, 3,  663.7373907)
ref_freqs.set(0, 4,  667.1277034)
ref_freqs.set(0, 5,  895.6058773)
ref_freqs.set(0, 6, 1009.3357983)
ref_freqs.set(0, 7,  1008.9476251)
ref_freqs.set(0, 8,  1047.0252516)
ref_freqs.set(0, 9, 1160.0942687)
ref_freqs.set(0,10,  1161.2390978)
ref_freqs.set(0,11,  1215.7764819)
ref_freqs.set(0,12, 1225.2606141)
ref_freqs.set(0,13,  1600.7766133)
ref_freqs.set(0,14,  1622.1707093)
ref_freqs.set(0,15,  1673.4406189)
ref_freqs.set(0,16,  2239.3784603)
ref_freqs.set(0,17,  3171.4980225)
ref_freqs.set(0,18,  3182.3588200)
ref_freqs.set(0,19, 3224.6209621)
ref_freqs.set(0,20, 3244.2534858)


a1_freqs = psi4.Vector(7)
a1_freqs.set(0, 0, ref_freqs[ 4])
a1_freqs.set(0, 1, ref_freqs[ 7])
a1_freqs.set(0, 2, ref_freqs[10])
a1_freqs.set(0, 3, ref_freqs[13])
a1_freqs.set(0, 4, ref_freqs[15])
a1_freqs.set(0, 5, ref_freqs[16])
a1_freqs.set(0, 6, ref_freqs[18])

a2_freqs = psi4.Vector(3)
a2_freqs.set(0, 0, ref_freqs[6])
a2_freqs.set(0, 1, ref_freqs[12])
a2_freqs.set(0, 2, ref_freqs[19])

b1_freqs = psi4.Vector(6)
b1_freqs.set(0, 0, ref_freqs[1])
b1_freqs.set(0, 1, ref_freqs[3])
b1_freqs.set(0, 2, ref_freqs[8])
b1_freqs.set(0, 3, ref_freqs[11])
b1_freqs.set(0, 4, ref_freqs[14])
b1_freqs.set(0, 5, ref_freqs[17])

b2_freqs = psi4.Vector(5)
b2_freqs.set(0, 0, ref_freqs[0])
b2_freqs.set(0, 1, ref_freqs[2])
b2_freqs.set(0, 2, ref_freqs[5])
b2_freqs.set(0, 3, ref_freqs[9])
b2_freqs.set(0, 4, ref_freqs[20])


# *** Test all frequencies by 3-pt formula.
set {
  basis dz
  d_convergence 11
  points 3
}

set findif {print 3}

scf_e, scf_wfn = frequencies('scf',dertype=0,irrep=2, return_wfn=True)
fd_freqs = scf_wfn.frequencies()
clean()

compare_vectors(a2_freqs, fd_freqs, 0, "Finite-difference frequencies with 3-pt. formula to 1 cm^-1")  #TEST
del fd_freqs

# *** Test frequencies by 5-pt formula for A1 irrep only.
molecule c4nh4 {
  units angstrom
  -1 1
    C         0.000000000000     0.000000000000     1.119905811674
    N         0.000000000000     0.000000000000     2.310087277449
    C         0.000000000000     0.000000000000    -0.231085072523
    C        -0.781617287494     0.000000000000    -1.483869398827
    C         0.781617287494     0.000000000000    -1.483869398827
    H        -1.274488047821    -0.899961499592    -1.835960153318
    H        -1.274488047821     0.899961499592    -1.835960153318
    H         1.274488047821     0.899961499592    -1.835960153318
    H         1.274488047821    -0.899961499592    -1.835960153318
}

set {
 basis dz
 points 5
 d_convergence 11    # necessary for guaranteeing accuracy down to 0.001 cm^-1
 disp_size 0.010
}

scf_e, scf_wfn = frequencies('scf', irrep=1, return_wfn=True)
fd_freqs = scf_wfn.frequencies()
clean()

compare_vectors(a1_freqs, fd_freqs, 0, "A1 finite-diffence frequencies with 5-pt. formula to 1 cm^-1")  #TEST
del fd_freqs

# *** Test frequencies by 3-pt formula for A2 irrep only.
molecule c4nh4 {
  units angstrom
  -1 1
    C         0.000000000000     0.000000000000     1.119905811674
    N         0.000000000000     0.000000000000     2.310087277449
    C         0.000000000000     0.000000000000    -0.231085072523
    C        -0.781617287494     0.000000000000    -1.483869398827
    C         0.781617287494     0.000000000000    -1.483869398827
    H        -1.274488047821    -0.899961499592    -1.835960153318
    H        -1.274488047821     0.899961499592    -1.835960153318
    H         1.274488047821     0.899961499592    -1.835960153318
    H         1.274488047821    -0.899961499592    -1.835960153318
}

set {
 basis dz
 points 5
 d_convergence 11    # necessary for guaranteeing accuracy down to 0.001 cm^-1
 disp_size 0.010
}

scf_e, scf_wfn = frequencies('scf', irrep=2, return_wfn=True)
fd_freqs = scf_wfn.frequencies()
clean()

compare_vectors(a2_freqs, fd_freqs, 0, "A2 finite-diffence frequencies with 5-pt. formula to 1 cm^-1")  #TEST
del fd_freqs


# *** Test frequencies by 3-pt formula for B1 irrep only.
molecule c4nh4 {
  units angstrom
  -1 1
    C         0.000000000000     0.000000000000     1.119905811674
    N         0.000000000000     0.000000000000     2.310087277449
    C         0.000000000000     0.000000000000    -0.231085072523
    C        -0.781617287494     0.000000000000    -1.483869398827
    C         0.781617287494     0.000000000000    -1.483869398827
    H        -1.274488047821    -0.899961499592    -1.835960153318
    H        -1.274488047821     0.899961499592    -1.835960153318
    H         1.274488047821     0.899961499592    -1.835960153318
    H         1.274488047821    -0.899961499592    -1.835960153318
}

set {
 basis dz
 points 5
 d_convergence 11    # necessary for guaranteeing accuracy down to 0.001 cm^-1
 disp_size 0.010
}

scf_e, scf_wfn = frequencies('scf', irrep=3, return_wfn=True)
fd_freqs = scf_wfn.frequencies()
clean()

compare_vectors(b1_freqs, fd_freqs, 0, "B1 finite-diffence frequencies with 5-pt. formula to 1 cm^-1")  #TEST
del fd_freqs


# *** Test frequencies by 3-pt formula for B2 irrep only.
molecule c4nh4 {
  units angstrom
  -1 1
    C         0.000000000000     0.000000000000     1.119905811674
    N         0.000000000000     0.000000000000     2.310087277449
    C         0.000000000000     0.000000000000    -0.231085072523
    C        -0.781617287494     0.000000000000    -1.483869398827
    C         0.781617287494     0.000000000000    -1.483869398827
    H        -1.274488047821    -0.899961499592    -1.835960153318
    H        -1.274488047821     0.899961499592    -1.835960153318
    H         1.274488047821     0.899961499592    -1.835960153318
    H         1.274488047821    -0.899961499592    -1.835960153318
}

set {
 basis dz
 points 5
 d_convergence 11    # necessary for guaranteeing accuracy down to 0.001 cm^-1
 disp_size 0.010
}

scf_e, scf_wfn = frequencies('scf', irrep=4, return_wfn=True)
fd_freqs = scf_wfn.frequencies()

compare_vectors(b2_freqs, fd_freqs, 0, "B2 finite-diffence frequencies with 5-pt. formula to 1 cm^-1")  #TEST
del fd_freqs

del a1_freqs
del a2_freqs
del b1_freqs
del b2_freqs
del ref_freqs

--------------------------------------------------------------------------
hessian() will perform frequency computation by finite difference of analytic energies.

-------------------------------------------------------------

  Using finite-differences of energies to determine vibrational frequencies and 
  normal modes.  Resulting frequencies are only valid at stationary points.
	Generating geometries for use with 3-point formula.
	Displacement size will be 5.00e-03.
	Number of atoms is 9.
	Number of irreps is 4.
	Number of SALCS is 21.
	 Number of SALC's per irrep:
	  Irrep 1: 0
	  Irrep 2: 3
	  Irrep 3: 0
	  Irrep 4: 0
	Index of active salcs per irrep:
	  Irrep 2 :  7  8  9 
	Number of geometries (including reference) is 9.
	Number of displacements per irrep:
	  Irrep 1: 0
	  Irrep 2: 9
	  Irrep 3: 0
	  Irrep 4: 0
	irrep = 0, ncomponent = 9
		0: atom 0, direction z, coef 0.904586
		1: atom 1, direction z, coef -0.217011
		2: atom 2, direction z, coef -0.200891
		3: atom 3, direction z, coef -0.200891
		4: atom 4, direction z, coef -0.200891
		5: atom 5, direction z, coef -0.058219
		6: atom 6, direction z, coef -0.058219
		7: atom 7, direction z, coef -0.058219
		8: atom 8, direction z, coef -0.058219
	irrep = 0, ncomponent = 8
		0: atom 1, direction z, coef 0.860726
		1: atom 2, direction z, coef -0.278720
		2: atom 3, direction z, coef -0.278720
		3: atom 4, direction z, coef -0.278720
		4: atom 5, direction z, coef -0.080774
		5: atom 6, direction z, coef -0.080774
		6: atom 7, direction z, coef -0.080774
		7: atom 8, direction z, coef -0.080774
	irrep = 0, ncomponent = 7
		0: atom 2, direction z, coef 0.836800
		1: atom 3, direction z, coef -0.358228
		2: atom 4, direction z, coef -0.358228
		3: atom 5, direction z, coef -0.103815
		4: atom 6, direction z, coef -0.103815
		5: atom 7, direction z, coef -0.103815
		6: atom 8, direction z, coef -0.103815
	irrep = 0, ncomponent = 2
		0: atom 3, direction x, coef 0.707107
		1: atom 4, direction x, coef -0.707107
	irrep = 0, ncomponent = 6
		0: atom 3, direction z, coef 0.268155
		1: atom 4, direction z, coef 0.268155
		2: atom 5, direction z, coef -0.462652
		3: atom 6, direction z, coef -0.462652
		4: atom 7, direction z, coef -0.462652
		5: atom 8, direction z, coef -0.462652
	irrep = 0, ncomponent = 4
		0: atom 5, direction x, coef 0.500000
		1: atom 6, direction x, coef 0.500000
		2: atom 7, direction x, coef -0.500000
		3: atom 8, direction x, coef -0.500000
	irrep = 0, ncomponent = 4
		0: atom 5, direction y, coef 0.500000
		1: atom 6, direction y, coef -0.500000
		2: atom 7, direction y, coef -0.500000
		3: atom 8, direction y, coef 0.500000
	irrep = 1, ncomponent = 10
		0: atom 3, direction y, coef 0.447739
		1: atom 4, direction y, coef -0.447739
		2: atom 5, direction x, coef 0.223227
		3: atom 5, direction y, coef -0.316124
		4: atom 6, direction x, coef -0.223227
		5: atom 6, direction y, coef -0.316124
		6: atom 7, direction x, coef -0.223227
		7: atom 7, direction y, coef 0.316124
		8: atom 8, direction x, coef 0.223227
		9: atom 8, direction y, coef 0.316124
	irrep = 1, ncomponent = 8
		0: atom 5, direction x, coef 0.408435
		1: atom 5, direction y, coef 0.288411
		2: atom 6, direction x, coef -0.408435
		3: atom 6, direction y, coef 0.288411
		4: atom 7, direction x, coef -0.408435
		5: atom 7, direction y, coef -0.288411
		6: atom 8, direction x, coef 0.408435
		7: atom 8, direction y, coef -0.288411
	irrep = 1, ncomponent = 4
		0: atom 5, direction z, coef 0.500000
		1: atom 6, direction z, coef -0.500000
		2: atom 7, direction z, coef 0.500000
		3: atom 8, direction z, coef -0.500000
	irrep = 2, ncomponent = 15
		0: atom 0, direction x, coef 0.856594
		1: atom 1, direction x, coef -0.449039
		2: atom 2, direction x, coef -0.191786
		3: atom 3, direction x, coef -0.081406
		4: atom 3, direction z, coef -0.068867
		5: atom 4, direction x, coef -0.081406
		6: atom 4, direction z, coef 0.068867
		7: atom 5, direction x, coef -0.014601
		8: atom 5, direction z, coef -0.032543
		9: atom 6, direction x, coef -0.014601
		10: atom 6, direction z, coef -0.032543
		11: atom 7, direction x, coef -0.014601
		12: atom 7, direction z, coef 0.032543
		13: atom 8, direction x, coef -0.014601
		14: atom 8, direction z, coef 0.032543
	irrep = 2, ncomponent = 14
		0: atom 1, direction x, coef 0.408211
		1: atom 2, direction x, coef -0.596659
		2: atom 3, direction x, coef 0.040882
		3: atom 3, direction z, coef -0.397764
		4: atom 4, direction x, coef 0.040882
		5: atom 4, direction z, coef 0.397764
		6: atom 5, direction x, coef 0.063774
		7: atom 5, direction z, coef -0.187962
		8: atom 6, direction x, coef 0.063774
		9: atom 6, direction z, coef -0.187962
		10: atom 7, direction x, coef 0.063774
		11: atom 7, direction z, coef 0.187962
		12: atom 8, direction x, coef 0.063774
		13: atom 8, direction z, coef 0.187962
	irrep = 2, ncomponent = 13
		0: atom 2, direction x, coef 0.649534
		1: atom 3, direction x, coef -0.301835
		2: atom 3, direction z, coef -0.366978
		3: atom 4, direction x, coef -0.301835
		4: atom 4, direction z, coef 0.366978
		5: atom 5, direction x, coef -0.039565
		6: atom 5, direction z, coef -0.173414
		7: atom 6, direction x, coef -0.039565
		8: atom 6, direction z, coef -0.173414
		9: atom 7, direction x, coef -0.039565
		10: atom 7, direction z, coef 0.173414
		11: atom 8, direction x, coef -0.039565
		12: atom 8, direction z, coef 0.173414
	irrep = 2, ncomponent = 12
		0: atom 3, direction x, coef 0.265491
		1: atom 3, direction z, coef -0.082673
		2: atom 4, direction x, coef 0.265491
		3: atom 4, direction z, coef 0.082673
		4: atom 5, direction x, coef -0.458054
		5: atom 5, direction z, coef -0.039067
		6: atom 6, direction x, coef -0.458054
		7: atom 6, direction z, coef -0.039067
		8: atom 7, direction x, coef -0.458054
		9: atom 7, direction z, coef 0.039067
		10: atom 8, direction x, coef -0.458054
		11: atom 8, direction z, coef 0.039067
	irrep = 2, ncomponent = 6
		0: atom 3, direction z, coef 0.392889
		1: atom 4, direction z, coef -0.392889
		2: atom 5, direction z, coef -0.415715
		3: atom 6, direction z, coef -0.415715
		4: atom 7, direction z, coef 0.415715
		5: atom 8, direction z, coef 0.415715
	irrep = 2, ncomponent = 4
		0: atom 5, direction y, coef 0.500000
		1: atom 6, direction y, coef -0.500000
		2: atom 7, direction y, coef 0.500000
		3: atom 8, direction y, coef -0.500000
	irrep = 3, ncomponent = 13
		0: atom 0, direction y, coef 0.851047
		1: atom 1, direction y, coef -0.476769
		2: atom 2, direction y, coef -0.190739
		3: atom 3, direction y, coef -0.067188
		4: atom 4, direction y, coef -0.067188
		5: atom 5, direction y, coef -0.009408
		6: atom 5, direction z, coef -0.025722
		7: atom 6, direction y, coef -0.009408
		8: atom 6, direction z, coef 0.025722
		9: atom 7, direction y, coef -0.009408
		10: atom 7, direction z, coef 0.025722
		11: atom 8, direction y, coef -0.009408
		12: atom 8, direction z, coef -0.025722
	irrep = 3, ncomponent = 12
		0: atom 1, direction y, coef 0.306478
		1: atom 2, direction y, coef -0.796227
		2: atom 3, direction y, coef 0.160463
		3: atom 4, direction y, coef 0.160463
		4: atom 5, direction y, coef 0.124423
		5: atom 5, direction z, coef -0.199169
		6: atom 6, direction y, coef 0.124423
		7: atom 6, direction z, coef 0.199169
		8: atom 7, direction y, coef 0.124423
		9: atom 7, direction z, coef 0.199169
		10: atom 8, direction y, coef 0.124423
		11: atom 8, direction z, coef -0.199169
	irrep = 3, ncomponent = 11
		0: atom 2, direction y, coef 0.379361
		1: atom 3, direction y, coef -0.243760
		2: atom 4, direction y, coef -0.243760
		3: atom 5, direction y, coef 0.093304
		4: atom 5, direction z, coef -0.419054
		5: atom 6, direction y, coef 0.093304
		6: atom 6, direction z, coef 0.419054
		7: atom 7, direction y, coef 0.093304
		8: atom 7, direction z, coef 0.419054
		9: atom 8, direction y, coef 0.093304
		10: atom 8, direction z, coef -0.419054
	irrep = 3, ncomponent = 10
		0: atom 3, direction y, coef 0.252142
		1: atom 4, direction y, coef 0.252142
		2: atom 5, direction y, coef -0.435024
		3: atom 5, direction z, coef -0.170194
		4: atom 6, direction y, coef -0.435024
		5: atom 6, direction z, coef 0.170194
		6: atom 7, direction y, coef -0.435024
		7: atom 7, direction z, coef 0.170194
		8: atom 8, direction y, coef -0.435024
		9: atom 8, direction z, coef -0.170194
	irrep = 3, ncomponent = 4
		0: atom 5, direction x, coef 0.500000
		1: atom 6, direction x, coef -0.500000
		2: atom 7, direction x, coef 0.500000
		3: atom 8, direction x, coef -0.500000

-------------------------------------------------------------

  //>>>>>>>>>>>>>>>>>>>>>>>>>>>>>>>>>>>//
  //    Loading displacement 1 of 10   //
  //<<<<<<<<<<<<<<<<<<<<<<<<<<<<<<<<<<<//

*** tstart() called on psinet
*** at Mon May 15 15:36:41 2017

   => Loading Basis Set <=

    Name: DZ
    Role: ORBITAL
    Keyword: BASIS
    atoms 1, 3-5 entry C          line    62 file /home/psilocaluser/gits/hrw-direct/objdir4/stage/usr/local/psi4/share/psi4/basis/dz.gbs 
    atoms 2      entry N          line    84 file /home/psilocaluser/gits/hrw-direct/objdir4/stage/usr/local/psi4/share/psi4/basis/dz.gbs 
    atoms 6-9    entry H          line    11 file /home/psilocaluser/gits/hrw-direct/objdir4/stage/usr/local/psi4/share/psi4/basis/dz.gbs 


         ---------------------------------------------------------
                                   SCF
            by Justin Turney, Rob Parrish, and Andy Simmonett
                              RHF Reference
                        1 Threads,    500 MiB Core
         ---------------------------------------------------------

  ==> Geometry <==

    Molecular point group: c2
    Full point group: C2

    Geometry (in Angstrom), charge = -1, multiplicity = 1:

       Center              X                  Y                   Z               Mass       
    ------------   -----------------  -----------------  -----------------  -----------------
           C          0.000000000000     0.000000000000     1.119905811674    12.000000000000
           N          0.000000000000     0.000000000000     2.310087277449    14.003074004780
           C          0.000000000000     0.000000000000    -0.231085072523    12.000000000000
           C         -0.781617287494    -0.000341983963    -1.483869398827    12.000000000000
           C          0.781617287494     0.000341983963    -1.483869398827    12.000000000000
           H         -1.275076382803    -0.899128324059    -1.835960153318     1.007825032070
           H         -1.273899712839     0.900794675125    -1.835960153318     1.007825032070
           H          1.275076382803     0.899128324059    -1.835960153318     1.007825032070
           H          1.273899712839    -0.900794675125    -1.835960153318     1.007825032070

  Running in c2 symmetry.

  Rotational constants: A =      0.68876  B =      0.10528  C =      0.09467 [cm^-1]
  Rotational constants: A =  20648.43430  B =   3156.31181  C =   2838.21605 [MHz]
  Nuclear repulsion =  136.459283197976788

  Charge       = -1
  Multiplicity = 1
  Electrons    = 36
  Nalpha       = 18
  Nbeta        = 18

  ==> Algorithm <==

  SCF Algorithm Type is DF.
  DIIS enabled.
  MOM disabled.
  Fractional occupation disabled.
  Guess Type is SAD.
  Energy threshold   = 1.00e-10
  Density threshold  = 1.00e-11
  Integral threshold = 0.00e+00

  ==> Primary Basis <==

  Basis Set: DZ
    Blend: DZ
    Number of shells: 38
    Number of basis function: 58
    Number of Cartesian functions: 58
    Spherical Harmonics?: false
    Max angular momentum: 1

   => Loading Basis Set <=

    Name: (DZ AUX)
    Role: JKFIT
    Keyword: DF_BASIS_SCF
    atoms 1, 3-5 entry C          line   202 file /home/psilocaluser/gits/hrw-direct/objdir4/stage/usr/local/psi4/share/psi4/basis/def2-qzvpp-jkfit.gbs 
    atoms 2      entry N          line   262 file /home/psilocaluser/gits/hrw-direct/objdir4/stage/usr/local/psi4/share/psi4/basis/def2-qzvpp-jkfit.gbs 
    atoms 6-9    entry H          line    22 file /home/psilocaluser/gits/hrw-direct/objdir4/stage/usr/local/psi4/share/psi4/basis/def2-qzvpp-jkfit.gbs 

  ==> Pre-Iterations <==

   -------------------------------------------------------
    Irrep   Nso     Nmo     Nalpha   Nbeta   Ndocc  Nsocc
   -------------------------------------------------------
     A         32      32       0       0       0       0
     B         26      26       0       0       0       0
   -------------------------------------------------------
    Total      58      58      18      18      18       0
   -------------------------------------------------------

  ==> Integral Setup <==

  ==> DFJK: Density-Fitted J/K Matrices <==

    J tasked:                  Yes
    K tasked:                  Yes
    wK tasked:                  No
    OpenMP threads:              1
    Integrals threads:           1
    Memory (MB):               375
    Algorithm:                Core
    Integral Cache:           NONE
    Schwarz Cutoff:          1E-12
    Fitting Condition:       1E-12

   => Auxiliary Basis Set <=

  Basis Set: (DZ AUX)
    Blend: DEF2-QZVPP-JKFIT
    Number of shells: 149
    Number of basis function: 529
    Number of Cartesian functions: 529
    Spherical Harmonics?: false
    Max angular momentum: 4

  Minimum eigenvalue in the overlap matrix is 2.5827955976E-03.
  Using Symmetric Orthogonalization.

  SCF Guess: Superposition of Atomic Densities via on-the-fly atomic UHF.

  ==> Iterations <==

                           Total Energy        Delta E     RMS |[F,P]|

   @DF-RHF iter   0:  -213.12789275244305   -2.13128e+02   9.08528e-02 
   @DF-RHF iter   1:  -207.83821291199411    5.28968e+00   1.27382e-02 
   @DF-RHF iter   2:  -208.00522843722459   -1.67016e-01   8.09443e-03 DIIS
   @DF-RHF iter   3:  -208.06141633548418   -5.61879e-02   2.53000e-03 DIIS
   @DF-RHF iter   4:  -208.06816388940808   -6.74755e-03   1.02305e-03 DIIS
   @DF-RHF iter   5:  -208.06952951752561   -1.36563e-03   2.33367e-04 DIIS
   @DF-RHF iter   6:  -208.06971356796706   -1.84050e-04   1.04354e-04 DIIS
   @DF-RHF iter   7:  -208.06975531093542   -4.17430e-05   5.12513e-05 DIIS
   @DF-RHF iter   8:  -208.06976929903564   -1.39881e-05   1.94939e-05 DIIS
   @DF-RHF iter   9:  -208.06977117748386   -1.87845e-06   4.97825e-06 DIIS
   @DF-RHF iter  10:  -208.06977127342660   -9.59427e-08   1.23223e-06 DIIS
   @DF-RHF iter  11:  -208.06977127828139   -4.85480e-09   2.59913e-07 DIIS
   @DF-RHF iter  12:  -208.06977127847438   -1.92983e-10   4.69910e-08 DIIS
   @DF-RHF iter  13:  -208.06977127847972   -5.34328e-12   1.31239e-08 DIIS
   @DF-RHF iter  14:  -208.06977127848006   -3.41061e-13   2.80453e-09 DIIS
   @DF-RHF iter  15:  -208.06977127848012   -5.68434e-14   1.45159e-09 DIIS
   @DF-RHF iter  16:  -208.06977127848009    2.84217e-14   7.42300e-10 DIIS
   @DF-RHF iter  17:  -208.06977127848012   -2.84217e-14   4.08339e-10 DIIS
   @DF-RHF iter  18:  -208.06977127847995    1.70530e-13   1.32753e-10 DIIS
   @DF-RHF iter  19:  -208.06977127848026   -3.12639e-13   4.82967e-11 DIIS
   @DF-RHF iter  20:  -208.06977127848012    1.42109e-13   1.63576e-11 DIIS
   @DF-RHF iter  21:  -208.06977127848015   -2.84217e-14   7.84254e-12 DIIS

  ==> Post-Iterations <==

    Orbital Energies (a.u.)
    -----------------------

    Doubly Occupied:                                                      

       1A    -15.334336     2A    -11.080435     3A    -11.069695  
       1B    -11.069183     4A    -11.010569     5A     -0.988568  
       6A     -0.939719     7A     -0.682552     2B     -0.653904  
       8A     -0.505522     3B     -0.464819     9A     -0.343364  
      10A     -0.318109     4B     -0.303988     5B     -0.279568  
      11A     -0.250086     6B     -0.188544     7B     -0.054762  

    Virtual:                                                              

       8B      0.377069     9B      0.399137    12A      0.404387  
      13A      0.457251    10B      0.458461    11B      0.519531  
      14A      0.524828    12B      0.564061    15A      0.593246  
      16A      0.611910    13B      0.620048    14B      0.628183  
      17A      0.662726    18A      0.674577    15B      0.713384  
      16B      0.723785    19A      0.782742    20A      0.814276  
      17B      0.819448    18B      0.861667    19B      0.888032  
      20B      0.989338    21A      1.032976    21B      1.096462  
      22A      1.122384    22B      1.123118    23A      1.334974  
      23B      1.409640    24A      1.540172    25A      1.581111  
      24B      1.609163    26A      1.625771    27A      1.673388  
      25B      1.737049    28A      1.871325    29A     23.959659  
      30A     24.163021    26B     24.202230    31A     24.347129  
      32A     33.416844  

    Final Occupation by Irrep:
              A     B 
    DOCC [    11,    7 ]

  Energy converged.

  @DF-RHF Final Energy:  -208.06977127848015

   => Energetics <=

    Nuclear Repulsion Energy =            136.4592831979767880
    One-Electron Energy =                -557.9826660757282752
    Two-Electron Energy =                 213.4536115992713405
    DFT Exchange-Correlation Energy =       0.0000000000000000
    Empirical Dispersion Energy =           0.0000000000000000
    PCM Polarization Energy =               0.0000000000000000
    EFP Energy =                            0.0000000000000000
    Total Energy =                       -208.0697712784801467



Properties will be evaluated at   0.000000,   0.000000,   0.000000 Bohr

Properties computed using the SCF density matrix

  Nuclear Dipole Moment: (a.u.)
     X:     0.0000      Y:     0.0000      Z:    -6.8913

  Electronic Dipole Moment: (a.u.)
     X:     0.0000      Y:     0.0000      Z:     4.7761

  Dipole Moment: (a.u.)
     X:     0.0000      Y:     0.0000      Z:    -2.1153     Total:     2.1153

  Dipole Moment: (Debye)
     X:     0.0000      Y:     0.0000      Z:    -5.3764     Total:     5.3764


*** tstop() called on psinet at Mon May 15 15:36:43 2017
Module time:
	user time   =       1.61 seconds =       0.03 minutes
	system time =       0.04 seconds =       0.00 minutes
	total time  =          2 seconds =       0.03 minutes
Total time:
	user time   =       1.61 seconds =       0.03 minutes
	system time =       0.04 seconds =       0.00 minutes
	total time  =          2 seconds =       0.03 minutes

  //>>>>>>>>>>>>>>>>>>>>>>>>>>>>>>>>>>>//
  //    Loading displacement 2 of 10   //
  //<<<<<<<<<<<<<<<<<<<<<<<<<<<<<<<<<<<//

*** tstart() called on psinet
*** at Mon May 15 15:36:43 2017

   => Loading Basis Set <=

    Name: DZ
    Role: ORBITAL
    Keyword: BASIS
    atoms 1, 3-5 entry C          line    62 file /home/psilocaluser/gits/hrw-direct/objdir4/stage/usr/local/psi4/share/psi4/basis/dz.gbs 
    atoms 2      entry N          line    84 file /home/psilocaluser/gits/hrw-direct/objdir4/stage/usr/local/psi4/share/psi4/basis/dz.gbs 
    atoms 6-9    entry H          line    11 file /home/psilocaluser/gits/hrw-direct/objdir4/stage/usr/local/psi4/share/psi4/basis/dz.gbs 


         ---------------------------------------------------------
                                   SCF
            by Justin Turney, Rob Parrish, and Andy Simmonett
                              RHF Reference
                        1 Threads,    500 MiB Core
         ---------------------------------------------------------

  ==> Geometry <==

    Molecular point group: c2
    Full point group: C2

    Geometry (in Angstrom), charge = -1, multiplicity = 1:

       Center              X                  Y                   Z               Mass       
    ------------   -----------------  -----------------  -----------------  -----------------
           C          0.000000000000    -0.000000000000     1.119905811674    12.000000000000
           N          0.000000000000    -0.000000000000     2.310087277449    14.003074004780
           C          0.000000000000    -0.000000000000    -0.231085072523    12.000000000000
           C         -0.781617287494    -0.000000000000    -1.483869398827    12.000000000000
           C          0.781617287494     0.000000000000    -1.483869398827    12.000000000000
           H         -1.275564517257    -0.900721633082    -1.835960153318     1.007825032070
           H         -1.273411578385     0.899201366102    -1.835960153318     1.007825032070
           H          1.275564517257     0.900721633082    -1.835960153318     1.007825032070
           H          1.273411578385    -0.899201366102    -1.835960153318     1.007825032070

  Running in c2 symmetry.

  Rotational constants: A =      0.68876  B =      0.10528  C =      0.09467 [cm^-1]
  Rotational constants: A =  20648.43430  B =   3156.31192  C =   2838.21596 [MHz]
  Nuclear repulsion =  136.459299379931650

  Charge       = -1
  Multiplicity = 1
  Electrons    = 36
  Nalpha       = 18
  Nbeta        = 18

  ==> Algorithm <==

  SCF Algorithm Type is DF.
  DIIS enabled.
  MOM disabled.
  Fractional occupation disabled.
  Guess Type is SAD.
  Energy threshold   = 1.00e-10
  Density threshold  = 1.00e-11
  Integral threshold = 0.00e+00

  ==> Primary Basis <==

  Basis Set: DZ
    Blend: DZ
    Number of shells: 38
    Number of basis function: 58
    Number of Cartesian functions: 58
    Spherical Harmonics?: false
    Max angular momentum: 1

   => Loading Basis Set <=

    Name: (DZ AUX)
    Role: JKFIT
    Keyword: DF_BASIS_SCF
    atoms 1, 3-5 entry C          line   202 file /home/psilocaluser/gits/hrw-direct/objdir4/stage/usr/local/psi4/share/psi4/basis/def2-qzvpp-jkfit.gbs 
    atoms 2      entry N          line   262 file /home/psilocaluser/gits/hrw-direct/objdir4/stage/usr/local/psi4/share/psi4/basis/def2-qzvpp-jkfit.gbs 
    atoms 6-9    entry H          line    22 file /home/psilocaluser/gits/hrw-direct/objdir4/stage/usr/local/psi4/share/psi4/basis/def2-qzvpp-jkfit.gbs 

  ==> Pre-Iterations <==

   -------------------------------------------------------
    Irrep   Nso     Nmo     Nalpha   Nbeta   Ndocc  Nsocc
   -------------------------------------------------------
     A         32      32       0       0       0       0
     B         26      26       0       0       0       0
   -------------------------------------------------------
    Total      58      58      18      18      18       0
   -------------------------------------------------------

  ==> Integral Setup <==

  ==> DFJK: Density-Fitted J/K Matrices <==

    J tasked:                  Yes
    K tasked:                  Yes
    wK tasked:                  No
    OpenMP threads:              1
    Integrals threads:           1
    Memory (MB):               375
    Algorithm:                Core
    Integral Cache:           NONE
    Schwarz Cutoff:          1E-12
    Fitting Condition:       1E-12

   => Auxiliary Basis Set <=

  Basis Set: (DZ AUX)
    Blend: DEF2-QZVPP-JKFIT
    Number of shells: 149
    Number of basis function: 529
    Number of Cartesian functions: 529
    Spherical Harmonics?: false
    Max angular momentum: 4

  Minimum eigenvalue in the overlap matrix is 2.5827977467E-03.
  Using Symmetric Orthogonalization.

  SCF Guess: Superposition of Atomic Densities via on-the-fly atomic UHF.

  ==> Iterations <==

                           Total Energy        Delta E     RMS |[F,P]|

   @DF-RHF iter   0:  -213.12789207525859   -2.13128e+02   9.08528e-02 
   @DF-RHF iter   1:  -207.83821157965832    5.28968e+00   1.27382e-02 
   @DF-RHF iter   2:  -208.00522695573653   -1.67015e-01   8.09441e-03 DIIS
   @DF-RHF iter   3:  -208.06141465530447   -5.61877e-02   2.53001e-03 DIIS
   @DF-RHF iter   4:  -208.06816223833164   -6.74758e-03   1.02305e-03 DIIS
   @DF-RHF iter   5:  -208.06952786771882   -1.36563e-03   2.33368e-04 DIIS
   @DF-RHF iter   6:  -208.06971191920002   -1.84051e-04   1.04354e-04 DIIS
   @DF-RHF iter   7:  -208.06975366245661   -4.17433e-05   5.12514e-05 DIIS
   @DF-RHF iter   8:  -208.06976765061637   -1.39882e-05   1.94940e-05 DIIS
   @DF-RHF iter   9:  -208.06976952908286   -1.87847e-06   4.97826e-06 DIIS
   @DF-RHF iter  10:  -208.06976962502625   -9.59434e-08   1.23226e-06 DIIS
   @DF-RHF iter  11:  -208.06976962988156   -4.85531e-09   2.59966e-07 DIIS
   @DF-RHF iter  12:  -208.06976963007452   -1.92955e-10   4.71014e-08 DIIS
   @DF-RHF iter  13:  -208.06976963007997   -5.45697e-12   1.32922e-08 DIIS
   @DF-RHF iter  14:  -208.06976963008034   -3.69482e-13   3.06947e-09 DIIS
   @DF-RHF iter  15:  -208.06976963008043   -8.52651e-14   1.67061e-09 DIIS
   @DF-RHF iter  16:  -208.06976963008046   -2.84217e-14   8.23227e-10 DIIS
   @DF-RHF iter  17:  -208.06976963008034    1.13687e-13   4.23864e-10 DIIS
   @DF-RHF iter  18:  -208.06976963008040   -5.68434e-14   1.35456e-10 DIIS
   @DF-RHF iter  19:  -208.06976963008037    2.84217e-14   5.01931e-11 DIIS
   @DF-RHF iter  20:  -208.06976963008029    8.52651e-14   1.70631e-11 DIIS
   @DF-RHF iter  21:  -208.06976963008034   -5.68434e-14   8.20307e-12 DIIS

  ==> Post-Iterations <==

    Orbital Energies (a.u.)
    -----------------------

    Doubly Occupied:                                                      

       1A    -15.334336     2A    -11.080435     3A    -11.069695  
       1B    -11.069183     4A    -11.010569     5A     -0.988568  
       6A     -0.939719     7A     -0.682553     2B     -0.653905  
       8A     -0.505521     3B     -0.464819     9A     -0.343364  
      10A     -0.318109     4B     -0.303987     5B     -0.279568  
      11A     -0.250086     6B     -0.188544     7B     -0.054762  

    Virtual:                                                              

       8B      0.377069     9B      0.399137    12A      0.404387  
      13A      0.457251    10B      0.458461    11B      0.519531  
      14A      0.524829    12B      0.564059    15A      0.593242  
      16A      0.611914    13B      0.620048    14B      0.628187  
      17A      0.662726    18A      0.674576    15B      0.713385  
      16B      0.723785    19A      0.782742    20A      0.814276  
      17B      0.819448    18B      0.861667    19B      0.888032  
      20B      0.989337    21A      1.032975    21B      1.096462  
      22A      1.122384    22B      1.123118    23A      1.334974  
      23B      1.409636    24A      1.540171    25A      1.581110  
      24B      1.609170    26A      1.625770    27A      1.673395  
      25B      1.737050    28A      1.871325    29A     23.959659  
      30A     24.163022    26B     24.202231    31A     24.347129  
      32A     33.416844  

    Final Occupation by Irrep:
              A     B 
    DOCC [    11,    7 ]

  Energy converged.

  @DF-RHF Final Energy:  -208.06976963008034

   => Energetics <=

    Nuclear Repulsion Energy =            136.4592993799316503
    One-Electron Energy =                -557.9826919507987668
    Two-Electron Energy =                 213.4536229407868007
    DFT Exchange-Correlation Energy =       0.0000000000000000
    Empirical Dispersion Energy =           0.0000000000000000
    PCM Polarization Energy =               0.0000000000000000
    EFP Energy =                            0.0000000000000000
    Total Energy =                       -208.0697696300803443



Properties will be evaluated at   0.000000,   0.000000,   0.000000 Bohr

Properties computed using the SCF density matrix

  Nuclear Dipole Moment: (a.u.)
     X:     0.0000      Y:     0.0000      Z:    -6.8913

  Electronic Dipole Moment: (a.u.)
     X:     0.0000      Y:     0.0000      Z:     4.7761

  Dipole Moment: (a.u.)
     X:     0.0000      Y:     0.0000      Z:    -2.1152     Total:     2.1152

  Dipole Moment: (Debye)
     X:     0.0000      Y:     0.0000      Z:    -5.3764     Total:     5.3764


*** tstop() called on psinet at Mon May 15 15:36:45 2017
Module time:
	user time   =       1.59 seconds =       0.03 minutes
	system time =       0.03 seconds =       0.00 minutes
	total time  =          2 seconds =       0.03 minutes
Total time:
	user time   =       3.21 seconds =       0.05 minutes
	system time =       0.07 seconds =       0.00 minutes
	total time  =          4 seconds =       0.07 minutes

  //>>>>>>>>>>>>>>>>>>>>>>>>>>>>>>>>>>>//
  //    Loading displacement 3 of 10   //
  //<<<<<<<<<<<<<<<<<<<<<<<<<<<<<<<<<<<//

*** tstart() called on psinet
*** at Mon May 15 15:36:45 2017

   => Loading Basis Set <=

    Name: DZ
    Role: ORBITAL
    Keyword: BASIS
    atoms 1, 3-5 entry C          line    62 file /home/psilocaluser/gits/hrw-direct/objdir4/stage/usr/local/psi4/share/psi4/basis/dz.gbs 
    atoms 2      entry N          line    84 file /home/psilocaluser/gits/hrw-direct/objdir4/stage/usr/local/psi4/share/psi4/basis/dz.gbs 
    atoms 6-9    entry H          line    11 file /home/psilocaluser/gits/hrw-direct/objdir4/stage/usr/local/psi4/share/psi4/basis/dz.gbs 


         ---------------------------------------------------------
                                   SCF
            by Justin Turney, Rob Parrish, and Andy Simmonett
                              RHF Reference
                        1 Threads,    500 MiB Core
         ---------------------------------------------------------

  ==> Geometry <==

    Molecular point group: c2
    Full point group: C2

    Geometry (in Angstrom), charge = -1, multiplicity = 1:

       Center              X                  Y                   Z               Mass       
    ------------   -----------------  -----------------  -----------------  -----------------
           C          0.000000000000     0.000000000000     1.119905811674    12.000000000000
           N          0.000000000000     0.000000000000     2.310087277449    14.003074004780
           C          0.000000000000     0.000000000000    -0.231085072523    12.000000000000
           C         -0.781617287494    -0.000000000000    -1.483869398827    12.000000000000
           C          0.781617287494     0.000000000000    -1.483869398827    12.000000000000
           H         -1.274488047821    -0.899961499592    -1.837277950484     1.007825032070
           H         -1.274488047821     0.899961499592    -1.834642356152     1.007825032070
           H          1.274488047821     0.899961499592    -1.837277950484     1.007825032070
           H          1.274488047821    -0.899961499592    -1.834642356152     1.007825032070

  Running in c2 symmetry.

  Rotational constants: A =      0.68876  B =      0.10528  C =      0.09467 [cm^-1]
  Rotational constants: A =  20648.44021  B =   3156.31176  C =   2838.21598 [MHz]
  Nuclear repulsion =  136.459281144131580

  Charge       = -1
  Multiplicity = 1
  Electrons    = 36
  Nalpha       = 18
  Nbeta        = 18

  ==> Algorithm <==

  SCF Algorithm Type is DF.
  DIIS enabled.
  MOM disabled.
  Fractional occupation disabled.
  Guess Type is SAD.
  Energy threshold   = 1.00e-10
  Density threshold  = 1.00e-11
  Integral threshold = 0.00e+00

  ==> Primary Basis <==

  Basis Set: DZ
    Blend: DZ
    Number of shells: 38
    Number of basis function: 58
    Number of Cartesian functions: 58
    Spherical Harmonics?: false
    Max angular momentum: 1

   => Loading Basis Set <=

    Name: (DZ AUX)
    Role: JKFIT
    Keyword: DF_BASIS_SCF
    atoms 1, 3-5 entry C          line   202 file /home/psilocaluser/gits/hrw-direct/objdir4/stage/usr/local/psi4/share/psi4/basis/def2-qzvpp-jkfit.gbs 
    atoms 2      entry N          line   262 file /home/psilocaluser/gits/hrw-direct/objdir4/stage/usr/local/psi4/share/psi4/basis/def2-qzvpp-jkfit.gbs 
    atoms 6-9    entry H          line    22 file /home/psilocaluser/gits/hrw-direct/objdir4/stage/usr/local/psi4/share/psi4/basis/def2-qzvpp-jkfit.gbs 

  ==> Pre-Iterations <==

   -------------------------------------------------------
    Irrep   Nso     Nmo     Nalpha   Nbeta   Ndocc  Nsocc
   -------------------------------------------------------
     A         32      32       0       0       0       0
     B         26      26       0       0       0       0
   -------------------------------------------------------
    Total      58      58      18      18      18       0
   -------------------------------------------------------

  ==> Integral Setup <==

  ==> DFJK: Density-Fitted J/K Matrices <==

    J tasked:                  Yes
    K tasked:                  Yes
    wK tasked:                  No
    OpenMP threads:              1
    Integrals threads:           1
    Memory (MB):               375
    Algorithm:                Core
    Integral Cache:           NONE
    Schwarz Cutoff:          1E-12
    Fitting Condition:       1E-12

   => Auxiliary Basis Set <=

  Basis Set: (DZ AUX)
    Blend: DEF2-QZVPP-JKFIT
    Number of shells: 149
    Number of basis function: 529
    Number of Cartesian functions: 529
    Spherical Harmonics?: false
    Max angular momentum: 4

  Minimum eigenvalue in the overlap matrix is 2.5827950735E-03.
  Using Symmetric Orthogonalization.

  SCF Guess: Superposition of Atomic Densities via on-the-fly atomic UHF.

  ==> Iterations <==

                           Total Energy        Delta E     RMS |[F,P]|

   @DF-RHF iter   0:  -213.12788944800400   -2.13128e+02   9.08527e-02 
   @DF-RHF iter   1:  -207.83821373718283    5.28968e+00   1.27382e-02 
   @DF-RHF iter   2:  -208.00522933224576   -1.67016e-01   8.09442e-03 DIIS
   @DF-RHF iter   3:  -208.06141718966583   -5.61879e-02   2.53000e-03 DIIS
   @DF-RHF iter   4:  -208.06816475361830   -6.74756e-03   1.02305e-03 DIIS
   @DF-RHF iter   5:  -208.06953038239121   -1.36563e-03   2.33367e-04 DIIS
   @DF-RHF iter   6:  -208.06971443204569   -1.84050e-04   1.04353e-04 DIIS
   @DF-RHF iter   7:  -208.06975617484412   -4.17428e-05   5.12514e-05 DIIS
   @DF-RHF iter   8:  -208.06977016297199   -1.39881e-05   1.94940e-05 DIIS
   @DF-RHF iter   9:  -208.06977204143934   -1.87847e-06   4.97827e-06 DIIS
   @DF-RHF iter  10:  -208.06977213738358   -9.59442e-08   1.23228e-06 DIIS
   @DF-RHF iter  11:  -208.06977214223900   -4.85542e-09   2.60022e-07 DIIS
   @DF-RHF iter  12:  -208.06977214243216   -1.93154e-10   4.72222e-08 DIIS
   @DF-RHF iter  13:  -208.06977214243761   -5.45697e-12   1.34753e-08 DIIS
   @DF-RHF iter  14:  -208.06977214243818   -5.68434e-13   3.33599e-09 DIIS
   @DF-RHF iter  15:  -208.06977214243841   -2.27374e-13   1.87634e-09 DIIS
   @DF-RHF iter  16:  -208.06977214243827    1.42109e-13   8.85692e-10 DIIS
   @DF-RHF iter  17:  -208.06977214243830   -2.84217e-14   4.35962e-10 DIIS
   @DF-RHF iter  18:  -208.06977214243835   -5.68434e-14   1.37289e-10 DIIS
   @DF-RHF iter  19:  -208.06977214243847   -1.13687e-13   5.14215e-11 DIIS
   @DF-RHF iter  20:  -208.06977214243830    1.70530e-13   1.75262e-11 DIIS
   @DF-RHF iter  21:  -208.06977214243827    2.84217e-14   8.42625e-12 DIIS

  ==> Post-Iterations <==

    Orbital Energies (a.u.)
    -----------------------

    Doubly Occupied:                                                      

       1A    -15.334336     2A    -11.080435     3A    -11.069695  
       1B    -11.069183     4A    -11.010569     5A     -0.988568  
       6A     -0.939719     7A     -0.682552     2B     -0.653904  
       8A     -0.505521     3B     -0.464819     9A     -0.343365  
      10A     -0.318109     4B     -0.303987     5B     -0.279568  
      11A     -0.250086     6B     -0.188543     7B     -0.054762  

    Virtual:                                                              

       8B      0.377069     9B      0.399137    12A      0.404387  
      13A      0.457252    10B      0.458462    11B      0.519532  
      14A      0.524829    12B      0.564061    15A      0.593247  
      16A      0.611909    13B      0.620049    14B      0.628182  
      17A      0.662725    18A      0.674576    15B      0.713385  
      16B      0.723785    19A      0.782742    20A      0.814276  
      17B      0.819448    18B      0.861668    19B      0.888032  
      20B      0.989337    21A      1.032976    21B      1.096463  
      22A      1.122384    22B      1.123118    23A      1.334975  
      23B      1.409642    24A      1.540174    25A      1.581114  
      24B      1.609161    26A      1.625771    27A      1.673382  
      25B      1.737048    28A      1.871325    29A     23.959659  
      30A     24.163021    26B     24.202230    31A     24.347129  
      32A     33.416844  

    Final Occupation by Irrep:
              A     B 
    DOCC [    11,    7 ]

  Energy converged.

  @DF-RHF Final Energy:  -208.06977214243827

   => Energetics <=

    Nuclear Repulsion Energy =            136.4592811441315803
    One-Electron Energy =                -557.9826657676242121
    Two-Electron Energy =                 213.4536124810543640
    DFT Exchange-Correlation Energy =       0.0000000000000000
    Empirical Dispersion Energy =           0.0000000000000000
    PCM Polarization Energy =               0.0000000000000000
    EFP Energy =                            0.0000000000000000
    Total Energy =                       -208.0697721424382678



Properties will be evaluated at   0.000000,   0.000000,   0.000000 Bohr

Properties computed using the SCF density matrix

  Nuclear Dipole Moment: (a.u.)
     X:     0.0000      Y:     0.0000      Z:    -6.8913

  Electronic Dipole Moment: (a.u.)
     X:     0.0000      Y:     0.0000      Z:     4.7761

  Dipole Moment: (a.u.)
     X:     0.0000      Y:     0.0000      Z:    -2.1153     Total:     2.1153

  Dipole Moment: (Debye)
     X:     0.0000      Y:     0.0000      Z:    -5.3764     Total:     5.3764


*** tstop() called on psinet at Mon May 15 15:36:46 2017
Module time:
	user time   =       1.69 seconds =       0.03 minutes
	system time =       0.03 seconds =       0.00 minutes
	total time  =          1 seconds =       0.02 minutes
Total time:
	user time   =       4.91 seconds =       0.08 minutes
	system time =       0.10 seconds =       0.00 minutes
	total time  =          5 seconds =       0.08 minutes

  //>>>>>>>>>>>>>>>>>>>>>>>>>>>>>>>>>>>//
  //    Loading displacement 4 of 10   //
  //<<<<<<<<<<<<<<<<<<<<<<<<<<<<<<<<<<<//

*** tstart() called on psinet
*** at Mon May 15 15:36:46 2017

   => Loading Basis Set <=

    Name: DZ
    Role: ORBITAL
    Keyword: BASIS
    atoms 1, 3-5 entry C          line    62 file /home/psilocaluser/gits/hrw-direct/objdir4/stage/usr/local/psi4/share/psi4/basis/dz.gbs 
    atoms 2      entry N          line    84 file /home/psilocaluser/gits/hrw-direct/objdir4/stage/usr/local/psi4/share/psi4/basis/dz.gbs 
    atoms 6-9    entry H          line    11 file /home/psilocaluser/gits/hrw-direct/objdir4/stage/usr/local/psi4/share/psi4/basis/dz.gbs 


         ---------------------------------------------------------
                                   SCF
            by Justin Turney, Rob Parrish, and Andy Simmonett
                              RHF Reference
                        1 Threads,    500 MiB Core
         ---------------------------------------------------------

  ==> Geometry <==

    Molecular point group: c2
    Full point group: C2

    Geometry (in Angstrom), charge = -1, multiplicity = 1:

       Center              X                  Y                   Z               Mass       
    ------------   -----------------  -----------------  -----------------  -----------------
           C          0.000000000000    -0.000000000000     1.119905811674    12.000000000000
           N          0.000000000000    -0.000000000000     2.310087277449    14.003074004780
           C          0.000000000000    -0.000000000000    -0.231085072523    12.000000000000
           C         -0.781617287494     0.000341983963    -1.483869398827    12.000000000000
           C          0.781617287494    -0.000341983963    -1.483869398827    12.000000000000
           H         -1.272823243403    -0.900034541635    -1.835960153318     1.007825032070
           H         -1.276152852239     0.899888457549    -1.835960153318     1.007825032070
           H          1.272823243403     0.900034541635    -1.835960153318     1.007825032070
           H          1.276152852239    -0.899888457549    -1.835960153318     1.007825032070

  Running in c2 symmetry.

  Rotational constants: A =      0.68876  B =      0.10528  C =      0.09467 [cm^-1]
  Rotational constants: A =  20648.42839  B =   3156.31201  C =   2838.21578 [MHz]
  Nuclear repulsion =  136.459274733164733

  Charge       = -1
  Multiplicity = 1
  Electrons    = 36
  Nalpha       = 18
  Nbeta        = 18

  ==> Algorithm <==

  SCF Algorithm Type is DF.
  DIIS enabled.
  MOM disabled.
  Fractional occupation disabled.
  Guess Type is SAD.
  Energy threshold   = 1.00e-10
  Density threshold  = 1.00e-11
  Integral threshold = 0.00e+00

  ==> Primary Basis <==

  Basis Set: DZ
    Blend: DZ
    Number of shells: 38
    Number of basis function: 58
    Number of Cartesian functions: 58
    Spherical Harmonics?: false
    Max angular momentum: 1

   => Loading Basis Set <=

    Name: (DZ AUX)
    Role: JKFIT
    Keyword: DF_BASIS_SCF
    atoms 1, 3-5 entry C          line   202 file /home/psilocaluser/gits/hrw-direct/objdir4/stage/usr/local/psi4/share/psi4/basis/def2-qzvpp-jkfit.gbs 
    atoms 2      entry N          line   262 file /home/psilocaluser/gits/hrw-direct/objdir4/stage/usr/local/psi4/share/psi4/basis/def2-qzvpp-jkfit.gbs 
    atoms 6-9    entry H          line    22 file /home/psilocaluser/gits/hrw-direct/objdir4/stage/usr/local/psi4/share/psi4/basis/def2-qzvpp-jkfit.gbs 

  ==> Pre-Iterations <==

   -------------------------------------------------------
    Irrep   Nso     Nmo     Nalpha   Nbeta   Ndocc  Nsocc
   -------------------------------------------------------
     A         32      32       0       0       0       0
     B         26      26       0       0       0       0
   -------------------------------------------------------
    Total      58      58      18      18      18       0
   -------------------------------------------------------

  ==> Integral Setup <==

  ==> DFJK: Density-Fitted J/K Matrices <==

    J tasked:                  Yes
    K tasked:                  Yes
    wK tasked:                  No
    OpenMP threads:              1
    Integrals threads:           1
    Memory (MB):               375
    Algorithm:                Core
    Integral Cache:           NONE
    Schwarz Cutoff:          1E-12
    Fitting Condition:       1E-12

   => Auxiliary Basis Set <=

  Basis Set: (DZ AUX)
    Blend: DEF2-QZVPP-JKFIT
    Number of shells: 149
    Number of basis function: 529
    Number of Cartesian functions: 529
    Spherical Harmonics?: false
    Max angular momentum: 4

  Minimum eigenvalue in the overlap matrix is 2.5827953830E-03.
  Using Symmetric Orthogonalization.

  SCF Guess: Superposition of Atomic Densities via on-the-fly atomic UHF.

  ==> Iterations <==

                           Total Energy        Delta E     RMS |[F,P]|

   @DF-RHF iter   0:  -213.12788814936891   -2.13128e+02   9.08527e-02 
   @DF-RHF iter   1:  -207.83821300116901    5.28968e+00   1.27382e-02 
   @DF-RHF iter   2:  -208.00522834071623   -1.67015e-01   8.09443e-03 DIIS
   @DF-RHF iter   3:  -208.06141630703405   -5.61880e-02   2.53000e-03 DIIS
   @DF-RHF iter   4:  -208.06816388377717   -6.74758e-03   1.02305e-03 DIIS
   @DF-RHF iter   5:  -208.06952951833205   -1.36563e-03   2.33368e-04 DIIS
   @DF-RHF iter   6:  -208.06971357095230   -1.84053e-04   1.04354e-04 DIIS
   @DF-RHF iter   7:  -208.06975531436092   -4.17434e-05   5.12515e-05 DIIS
   @DF-RHF iter   8:  -208.06976930249971   -1.39881e-05   1.94940e-05 DIIS
   @DF-RHF iter   9:  -208.06977118094866   -1.87845e-06   4.97824e-06 DIIS
   @DF-RHF iter  10:  -208.06977127688941   -9.59407e-08   1.23218e-06 DIIS
   @DF-RHF iter  11:  -208.06977128174339   -4.85397e-09   2.59803e-07 DIIS
   @DF-RHF iter  12:  -208.06977128193600   -1.92614e-10   4.67574e-08 DIIS
   @DF-RHF iter  13:  -208.06977128194097   -4.97380e-12   1.27603e-08 DIIS
   @DF-RHF iter  14:  -208.06977128194154   -5.68434e-13   2.12625e-09 DIIS
   @DF-RHF iter  15:  -208.06977128194143    1.13687e-13   7.56341e-10 DIIS
   @DF-RHF iter  16:  -208.06977128194146   -2.84217e-14   3.59957e-10 DIIS
   @DF-RHF iter  17:  -208.06977128194140    5.68434e-14   2.54774e-10 DIIS
   @DF-RHF iter  18:  -208.06977128194129    1.13687e-13   1.10968e-10 DIIS
   @DF-RHF iter  19:  -208.06977128194148   -1.98952e-13   3.20509e-11 DIIS
   @DF-RHF iter  20:  -208.06977128194148    0.00000e+00   1.08536e-11 DIIS
   @DF-RHF iter  21:  -208.06977128194154   -5.68434e-14   3.63376e-12 DIIS

  ==> Post-Iterations <==

    Orbital Energies (a.u.)
    -----------------------

    Doubly Occupied:                                                      

       1A    -15.334336     2A    -11.080435     3A    -11.069695  
       1B    -11.069183     4A    -11.010569     5A     -0.988568  
       6A     -0.939719     7A     -0.682552     2B     -0.653903  
       8A     -0.505520     3B     -0.464819     9A     -0.343365  
      10A     -0.318109     4B     -0.303987     5B     -0.279568  
      11A     -0.250086     6B     -0.188543     7B     -0.054762  

    Virtual:                                                              

       8B      0.377069     9B      0.399137    12A      0.404387  
      13A      0.457251    10B      0.458462    11B      0.519532  
      14A      0.524829    12B      0.564061    15A      0.593245  
      16A      0.611912    13B      0.620047    14B      0.628183  
      17A      0.662725    18A      0.674575    15B      0.713384  
      16B      0.723786    19A      0.782743    20A      0.814276  
      17B      0.819449    18B      0.861667    19B      0.888032  
      20B      0.989338    21A      1.032977    21B      1.096462  
      22A      1.122384    22B      1.123118    23A      1.334975  
      23B      1.409641    24A      1.540174    25A      1.581115  
      24B      1.609163    26A      1.625772    27A      1.673379  
      25B      1.737048    28A      1.871325    29A     23.959658  
      30A     24.163021    26B     24.202230    31A     24.347129  
      32A     33.416844  

    Final Occupation by Irrep:
              A     B 
    DOCC [    11,    7 ]

  Energy converged.

  @DF-RHF Final Energy:  -208.06977128194154

   => Energetics <=

    Nuclear Repulsion Energy =            136.4592747331647331
    One-Electron Energy =                -557.9826522389646470
    Two-Electron Energy =                 213.4536062238583440
    DFT Exchange-Correlation Energy =       0.0000000000000000
    Empirical Dispersion Energy =           0.0000000000000000
    PCM Polarization Energy =               0.0000000000000000
    EFP Energy =                            0.0000000000000000
    Total Energy =                       -208.0697712819415415



Properties will be evaluated at   0.000000,   0.000000,   0.000000 Bohr

Properties computed using the SCF density matrix

  Nuclear Dipole Moment: (a.u.)
     X:     0.0000      Y:     0.0000      Z:    -6.8913

  Electronic Dipole Moment: (a.u.)
     X:     0.0000      Y:     0.0000      Z:     4.7761

  Dipole Moment: (a.u.)
     X:     0.0000      Y:     0.0000      Z:    -2.1153     Total:     2.1153

  Dipole Moment: (Debye)
     X:     0.0000      Y:     0.0000      Z:    -5.3764     Total:     5.3764


*** tstop() called on psinet at Mon May 15 15:36:48 2017
Module time:
	user time   =       1.69 seconds =       0.03 minutes
	system time =       0.02 seconds =       0.00 minutes
	total time  =          2 seconds =       0.03 minutes
Total time:
	user time   =       6.62 seconds =       0.11 minutes
	system time =       0.13 seconds =       0.00 minutes
	total time  =          7 seconds =       0.12 minutes

  //>>>>>>>>>>>>>>>>>>>>>>>>>>>>>>>>>>>//
  //    Loading displacement 5 of 10   //
  //<<<<<<<<<<<<<<<<<<<<<<<<<<<<<<<<<<<//

*** tstart() called on psinet
*** at Mon May 15 15:36:48 2017

   => Loading Basis Set <=

    Name: DZ
    Role: ORBITAL
    Keyword: BASIS
    atoms 1, 3-5 entry C          line    62 file /home/psilocaluser/gits/hrw-direct/objdir4/stage/usr/local/psi4/share/psi4/basis/dz.gbs 
    atoms 2      entry N          line    84 file /home/psilocaluser/gits/hrw-direct/objdir4/stage/usr/local/psi4/share/psi4/basis/dz.gbs 
    atoms 6-9    entry H          line    11 file /home/psilocaluser/gits/hrw-direct/objdir4/stage/usr/local/psi4/share/psi4/basis/dz.gbs 


         ---------------------------------------------------------
                                   SCF
            by Justin Turney, Rob Parrish, and Andy Simmonett
                              RHF Reference
                        1 Threads,    500 MiB Core
         ---------------------------------------------------------

  ==> Geometry <==

    Molecular point group: c2
    Full point group: C2

    Geometry (in Angstrom), charge = -1, multiplicity = 1:

       Center              X                  Y                   Z               Mass       
    ------------   -----------------  -----------------  -----------------  -----------------
           C          0.000000000000     0.000000000000     1.119905811674    12.000000000000
           N          0.000000000000     0.000000000000     2.310087277449    14.003074004780
           C          0.000000000000     0.000000000000    -0.231085072523    12.000000000000
           C         -0.781617287494    -0.000341983963    -1.483869398827    12.000000000000
           C          0.781617287494     0.000341983963    -1.483869398827    12.000000000000
           H         -1.276152852239    -0.899888457549    -1.835960153318     1.007825032070
           H         -1.272823243403     0.900034541635    -1.835960153318     1.007825032070
           H          1.276152852239     0.899888457549    -1.835960153318     1.007825032070
           H          1.272823243403    -0.900034541635    -1.835960153318     1.007825032070

  Running in c2 symmetry.

  Rotational constants: A =      0.68876  B =      0.10528  C =      0.09467 [cm^-1]
  Rotational constants: A =  20648.42839  B =   3156.31201  C =   2838.21578 [MHz]
  Nuclear repulsion =  136.459274733164733

  Charge       = -1
  Multiplicity = 1
  Electrons    = 36
  Nalpha       = 18
  Nbeta        = 18

  ==> Algorithm <==

  SCF Algorithm Type is DF.
  DIIS enabled.
  MOM disabled.
  Fractional occupation disabled.
  Guess Type is SAD.
  Energy threshold   = 1.00e-10
  Density threshold  = 1.00e-11
  Integral threshold = 0.00e+00

  ==> Primary Basis <==

  Basis Set: DZ
    Blend: DZ
    Number of shells: 38
    Number of basis function: 58
    Number of Cartesian functions: 58
    Spherical Harmonics?: false
    Max angular momentum: 1

   => Loading Basis Set <=

    Name: (DZ AUX)
    Role: JKFIT
    Keyword: DF_BASIS_SCF
    atoms 1, 3-5 entry C          line   202 file /home/psilocaluser/gits/hrw-direct/objdir4/stage/usr/local/psi4/share/psi4/basis/def2-qzvpp-jkfit.gbs 
    atoms 2      entry N          line   262 file /home/psilocaluser/gits/hrw-direct/objdir4/stage/usr/local/psi4/share/psi4/basis/def2-qzvpp-jkfit.gbs 
    atoms 6-9    entry H          line    22 file /home/psilocaluser/gits/hrw-direct/objdir4/stage/usr/local/psi4/share/psi4/basis/def2-qzvpp-jkfit.gbs 

  ==> Pre-Iterations <==

   -------------------------------------------------------
    Irrep   Nso     Nmo     Nalpha   Nbeta   Ndocc  Nsocc
   -------------------------------------------------------
     A         32      32       0       0       0       0
     B         26      26       0       0       0       0
   -------------------------------------------------------
    Total      58      58      18      18      18       0
   -------------------------------------------------------

  ==> Integral Setup <==

  ==> DFJK: Density-Fitted J/K Matrices <==

    J tasked:                  Yes
    K tasked:                  Yes
    wK tasked:                  No
    OpenMP threads:              1
    Integrals threads:           1
    Memory (MB):               375
    Algorithm:                Core
    Integral Cache:           NONE
    Schwarz Cutoff:          1E-12
    Fitting Condition:       1E-12

   => Auxiliary Basis Set <=

  Basis Set: (DZ AUX)
    Blend: DEF2-QZVPP-JKFIT
    Number of shells: 149
    Number of basis function: 529
    Number of Cartesian functions: 529
    Spherical Harmonics?: false
    Max angular momentum: 4

  Minimum eigenvalue in the overlap matrix is 2.5827953830E-03.
  Using Symmetric Orthogonalization.

  SCF Guess: Superposition of Atomic Densities via on-the-fly atomic UHF.

  ==> Iterations <==

                           Total Energy        Delta E     RMS |[F,P]|

   @DF-RHF iter   0:  -213.12789106764711   -2.13128e+02   9.08527e-02 
   @DF-RHF iter   1:  -207.83821289271668    5.28968e+00   1.27382e-02 
   @DF-RHF iter   2:  -208.00522837749128   -1.67015e-01   8.09443e-03 DIIS
   @DF-RHF iter   3:  -208.06141632999007   -5.61880e-02   2.53000e-03 DIIS
   @DF-RHF iter   4:  -208.06816388911312   -6.74756e-03   1.02305e-03 DIIS
   @DF-RHF iter   5:  -208.06952951985997   -1.36563e-03   2.33367e-04 DIIS
   @DF-RHF iter   6:  -208.06971357103802   -1.84051e-04   1.04354e-04 DIIS
   @DF-RHF iter   7:  -208.06975531426690   -4.17432e-05   5.12515e-05 DIIS
   @DF-RHF iter   8:  -208.06976930247399   -1.39882e-05   1.94940e-05 DIIS
   @DF-RHF iter   9:  -208.06977118094352   -1.87847e-06   4.97829e-06 DIIS
   @DF-RHF iter  10:  -208.06977127688910   -9.59456e-08   1.23229e-06 DIIS
   @DF-RHF iter  11:  -208.06977128174478   -4.85568e-09   2.60015e-07 DIIS
   @DF-RHF iter  12:  -208.06977128193762   -1.92841e-10   4.72011e-08 DIIS
   @DF-RHF iter  13:  -208.06977128194339   -5.76961e-12   1.34418e-08 DIIS
   @DF-RHF iter  14:  -208.06977128194376   -3.69482e-13   3.28846e-09 DIIS
   @DF-RHF iter  15:  -208.06977128194393   -1.70530e-13   1.84075e-09 DIIS
   @DF-RHF iter  16:  -208.06977128194376    1.70530e-13   8.76151e-10 DIIS
   @DF-RHF iter  17:  -208.06977128194387   -1.13687e-13   4.34055e-10 DIIS
   @DF-RHF iter  18:  -208.06977128194364    2.27374e-13   1.37131e-10 DIIS
   @DF-RHF iter  19:  -208.06977128194373   -8.52651e-14   5.12721e-11 DIIS
   @DF-RHF iter  20:  -208.06977128194393   -1.98952e-13   1.74687e-11 DIIS
   @DF-RHF iter  21:  -208.06977128194399   -5.68434e-14   8.40022e-12 DIIS

  ==> Post-Iterations <==

    Orbital Energies (a.u.)
    -----------------------

    Doubly Occupied:                                                      

       1A    -15.334336     2A    -11.080435     3A    -11.069695  
       1B    -11.069183     4A    -11.010569     5A     -0.988568  
       6A     -0.939719     7A     -0.682552     2B     -0.653903  
       8A     -0.505520     3B     -0.464819     9A     -0.343365  
      10A     -0.318109     4B     -0.303987     5B     -0.279568  
      11A     -0.250086     6B     -0.188543     7B     -0.054762  

    Virtual:                                                              

       8B      0.377069     9B      0.399137    12A      0.404387  
      13A      0.457251    10B      0.458462    11B      0.519532  
      14A      0.524829    12B      0.564061    15A      0.593245  
      16A      0.611912    13B      0.620047    14B      0.628183  
      17A      0.662725    18A      0.674575    15B      0.713384  
      16B      0.723786    19A      0.782743    20A      0.814276  
      17B      0.819449    18B      0.861667    19B      0.888032  
      20B      0.989338    21A      1.032977    21B      1.096462  
      22A      1.122384    22B      1.123118    23A      1.334975  
      23B      1.409641    24A      1.540174    25A      1.581115  
      24B      1.609163    26A      1.625772    27A      1.673379  
      25B      1.737048    28A      1.871325    29A     23.959658  
      30A     24.163021    26B     24.202230    31A     24.347129  
      32A     33.416844  

    Final Occupation by Irrep:
              A     B 
    DOCC [    11,    7 ]

  Energy converged.

  @DF-RHF Final Energy:  -208.06977128194399

   => Energetics <=

    Nuclear Repulsion Energy =            136.4592747331647331
    One-Electron Energy =                -557.9826522396242581
    Two-Electron Energy =                 213.4536062245155108
    DFT Exchange-Correlation Energy =       0.0000000000000000
    Empirical Dispersion Energy =           0.0000000000000000
    PCM Polarization Energy =               0.0000000000000000
    EFP Energy =                            0.0000000000000000
    Total Energy =                       -208.0697712819439857



Properties will be evaluated at   0.000000,   0.000000,   0.000000 Bohr

Properties computed using the SCF density matrix

  Nuclear Dipole Moment: (a.u.)
     X:     0.0000      Y:     0.0000      Z:    -6.8913

  Electronic Dipole Moment: (a.u.)
     X:     0.0000      Y:     0.0000      Z:     4.7761

  Dipole Moment: (a.u.)
     X:     0.0000      Y:     0.0000      Z:    -2.1153     Total:     2.1153

  Dipole Moment: (Debye)
     X:     0.0000      Y:     0.0000      Z:    -5.3764     Total:     5.3764


*** tstop() called on psinet at Mon May 15 15:36:50 2017
Module time:
	user time   =       1.66 seconds =       0.03 minutes
	system time =       0.03 seconds =       0.00 minutes
	total time  =          2 seconds =       0.03 minutes
Total time:
	user time   =       8.29 seconds =       0.14 minutes
	system time =       0.16 seconds =       0.00 minutes
	total time  =          9 seconds =       0.15 minutes

  //>>>>>>>>>>>>>>>>>>>>>>>>>>>>>>>>>>>//
  //    Loading displacement 6 of 10   //
  //<<<<<<<<<<<<<<<<<<<<<<<<<<<<<<<<<<<//

*** tstart() called on psinet
*** at Mon May 15 15:36:50 2017

   => Loading Basis Set <=

    Name: DZ
    Role: ORBITAL
    Keyword: BASIS
    atoms 1, 3-5 entry C          line    62 file /home/psilocaluser/gits/hrw-direct/objdir4/stage/usr/local/psi4/share/psi4/basis/dz.gbs 
    atoms 2      entry N          line    84 file /home/psilocaluser/gits/hrw-direct/objdir4/stage/usr/local/psi4/share/psi4/basis/dz.gbs 
    atoms 6-9    entry H          line    11 file /home/psilocaluser/gits/hrw-direct/objdir4/stage/usr/local/psi4/share/psi4/basis/dz.gbs 


         ---------------------------------------------------------
                                   SCF
            by Justin Turney, Rob Parrish, and Andy Simmonett
                              RHF Reference
                        1 Threads,    500 MiB Core
         ---------------------------------------------------------

  ==> Geometry <==

    Molecular point group: c2
    Full point group: C2

    Geometry (in Angstrom), charge = -1, multiplicity = 1:

       Center              X                  Y                   Z               Mass       
    ------------   -----------------  -----------------  -----------------  -----------------
           C          0.000000000000     0.000000000000     1.119905811674    12.000000000000
           N          0.000000000000     0.000000000000     2.310087277449    14.003074004780
           C          0.000000000000     0.000000000000    -0.231085072523    12.000000000000
           C         -0.781617287494     0.000341983963    -1.483869398827    12.000000000000
           C          0.781617287494    -0.000341983963    -1.483869398827    12.000000000000
           H         -1.273899712839    -0.900794675125    -1.834642356152     1.007825032070
           H         -1.275076382803     0.899128324059    -1.837277950484     1.007825032070
           H          1.273899712839     0.900794675125    -1.834642356152     1.007825032070
           H          1.275076382803    -0.899128324059    -1.837277950484     1.007825032070

  Running in c2 symmetry.

  Rotational constants: A =      0.68876  B =      0.10528  C =      0.09467 [cm^-1]
  Rotational constants: A =  20648.43430  B =   3156.31167  C =   2838.21594 [MHz]
  Nuclear repulsion =  136.459267928354393

  Charge       = -1
  Multiplicity = 1
  Electrons    = 36
  Nalpha       = 18
  Nbeta        = 18

  ==> Algorithm <==

  SCF Algorithm Type is DF.
  DIIS enabled.
  MOM disabled.
  Fractional occupation disabled.
  Guess Type is SAD.
  Energy threshold   = 1.00e-10
  Density threshold  = 1.00e-11
  Integral threshold = 0.00e+00

  ==> Primary Basis <==

  Basis Set: DZ
    Blend: DZ
    Number of shells: 38
    Number of basis function: 58
    Number of Cartesian functions: 58
    Spherical Harmonics?: false
    Max angular momentum: 1

   => Loading Basis Set <=

    Name: (DZ AUX)
    Role: JKFIT
    Keyword: DF_BASIS_SCF
    atoms 1, 3-5 entry C          line   202 file /home/psilocaluser/gits/hrw-direct/objdir4/stage/usr/local/psi4/share/psi4/basis/def2-qzvpp-jkfit.gbs 
    atoms 2      entry N          line   262 file /home/psilocaluser/gits/hrw-direct/objdir4/stage/usr/local/psi4/share/psi4/basis/def2-qzvpp-jkfit.gbs 
    atoms 6-9    entry H          line    22 file /home/psilocaluser/gits/hrw-direct/objdir4/stage/usr/local/psi4/share/psi4/basis/def2-qzvpp-jkfit.gbs 

  ==> Pre-Iterations <==

   -------------------------------------------------------
    Irrep   Nso     Nmo     Nalpha   Nbeta   Ndocc  Nsocc
   -------------------------------------------------------
     A         32      32       0       0       0       0
     B         26      26       0       0       0       0
   -------------------------------------------------------
    Total      58      58      18      18      18       0
   -------------------------------------------------------

  ==> Integral Setup <==

  ==> DFJK: Density-Fitted J/K Matrices <==

    J tasked:                  Yes
    K tasked:                  Yes
    wK tasked:                  No
    OpenMP threads:              1
    Integrals threads:           1
    Memory (MB):               375
    Algorithm:                Core
    Integral Cache:           NONE
    Schwarz Cutoff:          1E-12
    Fitting Condition:       1E-12

   => Auxiliary Basis Set <=

  Basis Set: (DZ AUX)
    Blend: DEF2-QZVPP-JKFIT
    Number of shells: 149
    Number of basis function: 529
    Number of Cartesian functions: 529
    Spherical Harmonics?: false
    Max angular momentum: 4

  Minimum eigenvalue in the overlap matrix is 2.5827917842E-03.
  Using Symmetric Orthogonalization.

  SCF Guess: Superposition of Atomic Densities via on-the-fly atomic UHF.

  ==> Iterations <==

                           Total Energy        Delta E     RMS |[F,P]|

   @DF-RHF iter   0:  -213.12788555608807   -2.13128e+02   9.08527e-02 
   @DF-RHF iter   1:  -207.83821359987749    5.28967e+00   1.27382e-02 
   @DF-RHF iter   2:  -208.00522895744930   -1.67015e-01   8.09443e-03 DIIS
   @DF-RHF iter   3:  -208.06141684780513   -5.61879e-02   2.53001e-03 DIIS
   @DF-RHF iter   4:  -208.06816444098143   -6.74759e-03   1.02304e-03 DIIS
   @DF-RHF iter   5:  -208.06953007230493   -1.36563e-03   2.33368e-04 DIIS
   @DF-RHF iter   6:  -208.06971412480800   -1.84053e-04   1.04354e-04 DIIS
   @DF-RHF iter   7:  -208.06975586827497   -4.17435e-05   5.12515e-05 DIIS
   @DF-RHF iter   8:  -208.06976985644255   -1.39882e-05   1.94939e-05 DIIS
   @DF-RHF iter   9:  -208.06977173487775   -1.87844e-06   4.97820e-06 DIIS
   @DF-RHF iter  10:  -208.06977183081693   -9.59392e-08   1.23217e-06 DIIS
   @DF-RHF iter  11:  -208.06977183567059   -4.85366e-09   2.59795e-07 DIIS
   @DF-RHF iter  12:  -208.06977183586292   -1.92330e-10   4.67323e-08 DIIS
   @DF-RHF iter  13:  -208.06977183586821   -5.28644e-12   1.27170e-08 DIIS
   @DF-RHF iter  14:  -208.06977183586852   -3.12639e-13   2.02743e-09 DIIS
   @DF-RHF iter  15:  -208.06977183586869   -1.70530e-13   6.13303e-10 DIIS
   @DF-RHF iter  16:  -208.06977183586861    8.52651e-14   2.39244e-10 DIIS
   @DF-RHF iter  17:  -208.06977183586878   -1.70530e-13   1.62177e-10 DIIS
   @DF-RHF iter  18:  -208.06977183586861    1.70530e-13   8.37235e-11 DIIS
   @DF-RHF iter  19:  -208.06977183586861    0.00000e+00   2.32939e-11 DIIS
   @DF-RHF iter  20:  -208.06977183586861    0.00000e+00   8.62320e-12 DIIS

  ==> Post-Iterations <==

    Orbital Energies (a.u.)
    -----------------------

    Doubly Occupied:                                                      

       1A    -15.334336     2A    -11.080435     3A    -11.069695  
       1B    -11.069183     4A    -11.010569     5A     -0.988568  
       6A     -0.939719     7A     -0.682552     2B     -0.653903  
       8A     -0.505521     3B     -0.464819     9A     -0.343363  
      10A     -0.318109     4B     -0.303988     5B     -0.279568  
      11A     -0.250086     6B     -0.188544     7B     -0.054762  

    Virtual:                                                              

       8B      0.377069     9B      0.399137    12A      0.404387  
      13A      0.457251    10B      0.458462    11B      0.519531  
      14A      0.524828    12B      0.564060    15A      0.593246  
      16A      0.611908    13B      0.620048    14B      0.628183  
      17A      0.662725    18A      0.674576    15B      0.713385  
      16B      0.723785    19A      0.782742    20A      0.814277  
      17B      0.819448    18B      0.861668    19B      0.888032  
      20B      0.989338    21A      1.032978    21B      1.096463  
      22A      1.122385    22B      1.123118    23A      1.334975  
      23B      1.409641    24A      1.540173    25A      1.581112  
      24B      1.609160    26A      1.625772    27A      1.673381  
      25B      1.737048    28A      1.871325    29A     23.959659  
      30A     24.163021    26B     24.202230    31A     24.347129  
      32A     33.416844  

    Final Occupation by Irrep:
              A     B 
    DOCC [    11,    7 ]

  Energy converged.

  @DF-RHF Final Energy:  -208.06977183586861

   => Energetics <=

    Nuclear Repulsion Energy =            136.4592679283543930
    One-Electron Energy =                -557.9826397086206953
    Two-Electron Energy =                 213.4535999443976948
    DFT Exchange-Correlation Energy =       0.0000000000000000
    Empirical Dispersion Energy =           0.0000000000000000
    PCM Polarization Energy =               0.0000000000000000
    EFP Energy =                            0.0000000000000000
    Total Energy =                       -208.0697718358686075



Properties will be evaluated at   0.000000,   0.000000,   0.000000 Bohr

Properties computed using the SCF density matrix

  Nuclear Dipole Moment: (a.u.)
     X:     0.0000      Y:     0.0000      Z:    -6.8913

  Electronic Dipole Moment: (a.u.)
     X:     0.0000      Y:     0.0000      Z:     4.7761

  Dipole Moment: (a.u.)
     X:     0.0000      Y:     0.0000      Z:    -2.1153     Total:     2.1153

  Dipole Moment: (Debye)
     X:     0.0000      Y:     0.0000      Z:    -5.3764     Total:     5.3764


*** tstop() called on psinet at Mon May 15 15:36:51 2017
Module time:
	user time   =       1.65 seconds =       0.03 minutes
	system time =       0.02 seconds =       0.00 minutes
	total time  =          1 seconds =       0.02 minutes
Total time:
	user time   =       9.95 seconds =       0.17 minutes
	system time =       0.18 seconds =       0.00 minutes
	total time  =         10 seconds =       0.17 minutes

  //>>>>>>>>>>>>>>>>>>>>>>>>>>>>>>>>>>>//
  //    Loading displacement 7 of 10   //
  //<<<<<<<<<<<<<<<<<<<<<<<<<<<<<<<<<<<//

*** tstart() called on psinet
*** at Mon May 15 15:36:51 2017

   => Loading Basis Set <=

    Name: DZ
    Role: ORBITAL
    Keyword: BASIS
    atoms 1, 3-5 entry C          line    62 file /home/psilocaluser/gits/hrw-direct/objdir4/stage/usr/local/psi4/share/psi4/basis/dz.gbs 
    atoms 2      entry N          line    84 file /home/psilocaluser/gits/hrw-direct/objdir4/stage/usr/local/psi4/share/psi4/basis/dz.gbs 
    atoms 6-9    entry H          line    11 file /home/psilocaluser/gits/hrw-direct/objdir4/stage/usr/local/psi4/share/psi4/basis/dz.gbs 


         ---------------------------------------------------------
                                   SCF
            by Justin Turney, Rob Parrish, and Andy Simmonett
                              RHF Reference
                        1 Threads,    500 MiB Core
         ---------------------------------------------------------

  ==> Geometry <==

    Molecular point group: c2
    Full point group: C2

    Geometry (in Angstrom), charge = -1, multiplicity = 1:

       Center              X                  Y                   Z               Mass       
    ------------   -----------------  -----------------  -----------------  -----------------
           C          0.000000000000     0.000000000000     1.119905811674    12.000000000000
           N          0.000000000000     0.000000000000     2.310087277449    14.003074004780
           C          0.000000000000     0.000000000000    -0.231085072523    12.000000000000
           C         -0.781617287494    -0.000341983963    -1.483869398827    12.000000000000
           C          0.781617287494     0.000341983963    -1.483869398827    12.000000000000
           H         -1.275076382803    -0.899128324059    -1.837277950484     1.007825032070
           H         -1.273899712839     0.900794675125    -1.834642356152     1.007825032070
           H          1.275076382803     0.899128324059    -1.837277950484     1.007825032070
           H          1.273899712839    -0.900794675125    -1.834642356152     1.007825032070

  Running in c2 symmetry.

  Rotational constants: A =      0.68876  B =      0.10528  C =      0.09467 [cm^-1]
  Rotational constants: A =  20648.43430  B =   3156.31167  C =   2838.21594 [MHz]
  Nuclear repulsion =  136.459267928354393

  Charge       = -1
  Multiplicity = 1
  Electrons    = 36
  Nalpha       = 18
  Nbeta        = 18

  ==> Algorithm <==

  SCF Algorithm Type is DF.
  DIIS enabled.
  MOM disabled.
  Fractional occupation disabled.
  Guess Type is SAD.
  Energy threshold   = 1.00e-10
  Density threshold  = 1.00e-11
  Integral threshold = 0.00e+00

  ==> Primary Basis <==

  Basis Set: DZ
    Blend: DZ
    Number of shells: 38
    Number of basis function: 58
    Number of Cartesian functions: 58
    Spherical Harmonics?: false
    Max angular momentum: 1

   => Loading Basis Set <=

    Name: (DZ AUX)
    Role: JKFIT
    Keyword: DF_BASIS_SCF
    atoms 1, 3-5 entry C          line   202 file /home/psilocaluser/gits/hrw-direct/objdir4/stage/usr/local/psi4/share/psi4/basis/def2-qzvpp-jkfit.gbs 
    atoms 2      entry N          line   262 file /home/psilocaluser/gits/hrw-direct/objdir4/stage/usr/local/psi4/share/psi4/basis/def2-qzvpp-jkfit.gbs 
    atoms 6-9    entry H          line    22 file /home/psilocaluser/gits/hrw-direct/objdir4/stage/usr/local/psi4/share/psi4/basis/def2-qzvpp-jkfit.gbs 

  ==> Pre-Iterations <==

   -------------------------------------------------------
    Irrep   Nso     Nmo     Nalpha   Nbeta   Ndocc  Nsocc
   -------------------------------------------------------
     A         32      32       0       0       0       0
     B         26      26       0       0       0       0
[...]
   26      0.022836419335439     0.000000000000000     0.000000000000000     0.022836419335439     0.000000000000000

                  25                    26        

    0      0.000000000000000     0.000000000000000
    1      0.000000000000000     0.000000000000000
    2      0.000000000000000    -0.001549183734667
    3      0.000000000000000     0.000000000000000
    4      0.000000000000000     0.000000000000000
    5      0.000000000000000    -0.000301057168493
    6      0.000000000000000     0.000000000000000
    7      0.000000000000000     0.000000000000000
    8      0.000000000000000    -0.003168864294562
    9      0.000000000000000     0.048242440479740
   10      0.000000000000000     0.000000000000000
   11      0.000000000000000    -0.010714466021792
   12      0.000000000000000    -0.048242440479740
   13      0.000000000000000     0.000000000000000
   14      0.000000000000000    -0.010714466021792
   15      0.000000000000000     0.000000000000000
   16      0.000000000000000     0.000000000000000
   17      0.000000000000000     0.022836419335439
   18      0.000000000000000     0.000000000000000
   19      0.000000000000000     0.000000000000000
   20      0.000000000000000     0.022836419335439
   21      0.000000000000000     0.000000000000000
   22      0.000000000000000     0.000000000000000
   23      0.000000000000000     0.022836419335439
   24      0.000000000000000     0.000000000000000
   25      0.000000000000000     0.000000000000000
   26      0.000000000000000     0.022836419335439

	Force Constants in cartesian coordinates.

                   0                     1                     2                     3                     4        

    0      0.000000000000000     0.000000000000000     0.000000000000000     0.000000000000000     0.000000000000000
    1      0.000000000000000     0.000000000000000     0.000000000000000     0.000000000000000     0.000000000000000
    2      0.000000000000000     0.000000000000000     0.137277988223881     0.000000000000000     0.000000000000000
    3      0.000000000000000     0.000000000000000     0.000000000000000     0.000000000000000     0.000000000000000
    4      0.000000000000000     0.000000000000000     0.000000000000000     0.000000000000000     0.000000000000000
    5      0.000000000000000     0.000000000000000    -0.026710346236197     0.000000000000000     0.000000000000000
    6      0.000000000000000     0.000000000000000     0.000000000000000     0.000000000000000     0.000000000000000
    7      0.000000000000000     0.000000000000000     0.000000000000000     0.000000000000000     0.000000000000000
    8      0.000000000000000     0.000000000000000    -0.013301136217148     0.000000000000000     0.000000000000000
    9      0.000000000000000     0.000000000000000     0.006998000580663     0.000000000000000     0.000000000000000
   10      0.000000000000000     0.000000000000000     0.000000000000000     0.000000000000000     0.000000000000000
   11      0.000000000000000     0.000000000000000    -0.037858281691881     0.000000000000000     0.000000000000000
   12      0.000000000000000     0.000000000000000    -0.006998000580663     0.000000000000000     0.000000000000000
   13      0.000000000000000     0.000000000000000     0.000000000000000     0.000000000000000     0.000000000000000
   14      0.000000000000000     0.000000000000000    -0.037858281691881     0.000000000000000     0.000000000000000
   15      0.000000000000000     0.000000000000000     0.000000000000000     0.000000000000000     0.000000000000000
   16      0.000000000000000     0.000000000000000     0.000000000000000     0.000000000000000     0.000000000000000
   17      0.000000000000000     0.000000000000000    -0.005387485596694     0.000000000000000     0.000000000000000
   18      0.000000000000000     0.000000000000000     0.000000000000000     0.000000000000000     0.000000000000000
   19      0.000000000000000     0.000000000000000     0.000000000000000     0.000000000000000     0.000000000000000
   20      0.000000000000000     0.000000000000000    -0.005387485596694     0.000000000000000     0.000000000000000
   21      0.000000000000000     0.000000000000000     0.000000000000000     0.000000000000000     0.000000000000000
   22      0.000000000000000     0.000000000000000     0.000000000000000     0.000000000000000     0.000000000000000
   23      0.000000000000000     0.000000000000000    -0.005387485596694     0.000000000000000     0.000000000000000
   24      0.000000000000000     0.000000000000000     0.000000000000000     0.000000000000000     0.000000000000000
   25      0.000000000000000     0.000000000000000     0.000000000000000     0.000000000000000     0.000000000000000
   26      0.000000000000000     0.000000000000000    -0.005387485596694     0.000000000000000     0.000000000000000

                   5                     6                     7                     8                     9        

    0      0.000000000000000     0.000000000000000     0.000000000000000     0.000000000000000     0.000000000000000
    1      0.000000000000000     0.000000000000000     0.000000000000000     0.000000000000000     0.000000000000000
    2     -0.026710346236197     0.000000000000000     0.000000000000000    -0.013301136217148     0.006998000580663
    3      0.000000000000000     0.000000000000000     0.000000000000000     0.000000000000000     0.000000000000000
    4      0.000000000000000     0.000000000000000     0.000000000000000     0.000000000000000     0.000000000000000
    5     -0.006226515560017     0.000000000000000     0.000000000000000     0.029188320305823     0.005440567770608
    6      0.000000000000000     0.000000000000000     0.000000000000000     0.000000000000000     0.000000000000000
    7      0.000000000000000     0.000000000000000     0.000000000000000     0.000000000000000     0.000000000000000
    8      0.029188320305823     0.000000000000000     0.000000000000000     0.401766861427706    -0.042563027452619
    9      0.005440567770608     0.000000000000000     0.000000000000000    -0.042563027452619     1.952046814064215
   10      0.000000000000000     0.000000000000000     0.000000000000000     0.000000000000000     0.000000000000000
   11      0.004136221944051     0.000000000000000     0.000000000000000    -0.186786756826147    -0.320476347853493
   12     -0.005440567770608     0.000000000000000     0.000000000000000     0.042563027452619    -1.952046814064215
   13      0.000000000000000     0.000000000000000     0.000000000000000     0.000000000000000     0.000000000000000
   14      0.004136221944051     0.000000000000000     0.000000000000000    -0.186786756826147    -0.320476347853493
   15      0.000000000000000     0.000000000000000     0.000000000000000     0.000000000000000     0.000000000000000
   16      0.000000000000000     0.000000000000000     0.000000000000000     0.000000000000000     0.000000000000000
   17     -0.001130975599428     0.000000000000000     0.000000000000000    -0.011020132966022     0.167769288702084
   18      0.000000000000000     0.000000000000000     0.000000000000000     0.000000000000000     0.000000000000000
   19      0.000000000000000     0.000000000000000     0.000000000000000     0.000000000000000     0.000000000000000
   20     -0.001130975599428     0.000000000000000     0.000000000000000    -0.011020132966022     0.167769288702084
   21      0.000000000000000     0.000000000000000     0.000000000000000     0.000000000000000     0.000000000000000
   22      0.000000000000000     0.000000000000000     0.000000000000000     0.000000000000000     0.000000000000000
   23     -0.001130975599428     0.000000000000000     0.000000000000000    -0.011020132966022     0.167769288702084
   24      0.000000000000000     0.000000000000000     0.000000000000000     0.000000000000000     0.000000000000000
   25      0.000000000000000     0.000000000000000     0.000000000000000     0.000000000000000     0.000000000000000
   26     -0.001130975599428     0.000000000000000     0.000000000000000    -0.011020132966022     0.167769288702084

                  10                    11                    12                    13                    14        

    0      0.000000000000000     0.000000000000000     0.000000000000000     0.000000000000000     0.000000000000000
    1      0.000000000000000     0.000000000000000     0.000000000000000     0.000000000000000     0.000000000000000
    2      0.000000000000000    -0.037858281691881    -0.006998000580663     0.000000000000000    -0.037858281691881
    3      0.000000000000000     0.000000000000000     0.000000000000000     0.000000000000000     0.000000000000000
    4      0.000000000000000     0.000000000000000     0.000000000000000     0.000000000000000     0.000000000000000
    5      0.000000000000000     0.004136221944051    -0.005440567770608     0.000000000000000     0.004136221944051
    6      0.000000000000000     0.000000000000000     0.000000000000000     0.000000000000000     0.000000000000000
    7      0.000000000000000     0.000000000000000     0.000000000000000     0.000000000000000     0.000000000000000
    8      0.000000000000000    -0.186786756826147     0.042563027452619     0.000000000000000    -0.186786756826147
    9      0.000000000000000    -0.320476347853493    -1.952046814064215     0.000000000000000    -0.320476347853493
   10      0.000000000000000     0.000000000000000     0.000000000000000     0.000000000000000     0.000000000000000
   11      0.000000000000000     0.184776274321257     0.320476347853493     0.000000000000000     0.184776274321257
   12      0.000000000000000     0.320476347853493     1.952046814064215     0.000000000000000     0.320476347853493
   13      0.000000000000000     0.000000000000000     0.000000000000000     0.000000000000000     0.000000000000000
   14      0.000000000000000     0.184776274321257     0.320476347853493     0.000000000000000     0.184776274321257
   15      0.000000000000000     0.000000000000000     0.000000000000000     0.000000000000000     0.000000000000000
   16      0.000000000000000     0.000000000000000     0.000000000000000     0.000000000000000     0.000000000000000
   17      0.000000000000000    -0.037260933017134    -0.167769288702084     0.000000000000000    -0.037260933017134
   18      0.000000000000000     0.000000000000000     0.000000000000000     0.000000000000000     0.000000000000000
   19      0.000000000000000     0.000000000000000     0.000000000000000     0.000000000000000     0.000000000000000
   20      0.000000000000000    -0.037260933017134    -0.167769288702084     0.000000000000000    -0.037260933017134
   21      0.000000000000000     0.000000000000000     0.000000000000000     0.000000000000000     0.000000000000000
   22      0.000000000000000     0.000000000000000     0.000000000000000     0.000000000000000     0.000000000000000
   23      0.000000000000000    -0.037260933017134    -0.167769288702084     0.000000000000000    -0.037260933017134
   24      0.000000000000000     0.000000000000000     0.000000000000000     0.000000000000000     0.000000000000000
   25      0.000000000000000     0.000000000000000     0.000000000000000     0.000000000000000     0.000000000000000
   26      0.000000000000000    -0.037260933017134    -0.167769288702084     0.000000000000000    -0.037260933017134

                  15                    16                    17                    18                    19        

    0      0.000000000000000     0.000000000000000     0.000000000000000     0.000000000000000     0.000000000000000
    1      0.000000000000000     0.000000000000000     0.000000000000000     0.000000000000000     0.000000000000000
    2      0.000000000000000     0.000000000000000    -0.005387485596694     0.000000000000000     0.000000000000000
    3      0.000000000000000     0.000000000000000     0.000000000000000     0.000000000000000     0.000000000000000
    4      0.000000000000000     0.000000000000000     0.000000000000000     0.000000000000000     0.000000000000000
    5      0.000000000000000     0.000000000000000    -0.001130975599428     0.000000000000000     0.000000000000000
    6      0.000000000000000     0.000000000000000     0.000000000000000     0.000000000000000     0.000000000000000
    7      0.000000000000000     0.000000000000000     0.000000000000000     0.000000000000000     0.000000000000000
    8      0.000000000000000     0.000000000000000    -0.011020132966022     0.000000000000000     0.000000000000000
    9      0.000000000000000     0.000000000000000     0.167769288702084     0.000000000000000     0.000000000000000
   10      0.000000000000000     0.000000000000000     0.000000000000000     0.000000000000000     0.000000000000000
   11      0.000000000000000     0.000000000000000    -0.037260933017134     0.000000000000000     0.000000000000000
   12      0.000000000000000     0.000000000000000    -0.167769288702084     0.000000000000000     0.000000000000000
   13      0.000000000000000     0.000000000000000     0.000000000000000     0.000000000000000     0.000000000000000
   14      0.000000000000000     0.000000000000000    -0.037260933017134     0.000000000000000     0.000000000000000
   15      0.000000000000000     0.000000000000000     0.000000000000000     0.000000000000000     0.000000000000000
   16      0.000000000000000     0.000000000000000     0.000000000000000     0.000000000000000     0.000000000000000
   17      0.000000000000000     0.000000000000000     0.023015115049103     0.000000000000000     0.000000000000000
   18      0.000000000000000     0.000000000000000     0.000000000000000     0.000000000000000     0.000000000000000
   19      0.000000000000000     0.000000000000000     0.000000000000000     0.000000000000000     0.000000000000000
   20      0.000000000000000     0.000000000000000     0.023015115049103     0.000000000000000     0.000000000000000
   21      0.000000000000000     0.000000000000000     0.000000000000000     0.000000000000000     0.000000000000000
   22      0.000000000000000     0.000000000000000     0.000000000000000     0.000000000000000     0.000000000000000
   23      0.000000000000000     0.000000000000000     0.023015115049103     0.000000000000000     0.000000000000000
   24      0.000000000000000     0.000000000000000     0.000000000000000     0.000000000000000     0.000000000000000
   25      0.000000000000000     0.000000000000000     0.000000000000000     0.000000000000000     0.000000000000000
   26      0.000000000000000     0.000000000000000     0.023015115049103     0.000000000000000     0.000000000000000

                  20                    21                    22                    23                    24        

    0      0.000000000000000     0.000000000000000     0.000000000000000     0.000000000000000     0.000000000000000
    1      0.000000000000000     0.000000000000000     0.000000000000000     0.000000000000000     0.000000000000000
    2     -0.005387485596694     0.000000000000000     0.000000000000000    -0.005387485596694     0.000000000000000
    3      0.000000000000000     0.000000000000000     0.000000000000000     0.000000000000000     0.000000000000000
    4      0.000000000000000     0.000000000000000     0.000000000000000     0.000000000000000     0.000000000000000
    5     -0.001130975599428     0.000000000000000     0.000000000000000    -0.001130975599428     0.000000000000000
    6      0.000000000000000     0.000000000000000     0.000000000000000     0.000000000000000     0.000000000000000
    7      0.000000000000000     0.000000000000000     0.000000000000000     0.000000000000000     0.000000000000000
    8     -0.011020132966022     0.000000000000000     0.000000000000000    -0.011020132966022     0.000000000000000
    9      0.167769288702084     0.000000000000000     0.000000000000000     0.167769288702084     0.000000000000000
   10      0.000000000000000     0.000000000000000     0.000000000000000     0.000000000000000     0.000000000000000
   11     -0.037260933017134     0.000000000000000     0.000000000000000    -0.037260933017134     0.000000000000000
   12     -0.167769288702084     0.000000000000000     0.000000000000000    -0.167769288702084     0.000000000000000
   13      0.000000000000000     0.000000000000000     0.000000000000000     0.000000000000000     0.000000000000000
   14     -0.037260933017134     0.000000000000000     0.000000000000000    -0.037260933017134     0.000000000000000
   15      0.000000000000000     0.000000000000000     0.000000000000000     0.000000000000000     0.000000000000000
   16      0.000000000000000     0.000000000000000     0.000000000000000     0.000000000000000     0.000000000000000
   17      0.023015115049103     0.000000000000000     0.000000000000000     0.023015115049103     0.000000000000000
   18      0.000000000000000     0.000000000000000     0.000000000000000     0.000000000000000     0.000000000000000
   19      0.000000000000000     0.000000000000000     0.000000000000000     0.000000000000000     0.000000000000000
   20      0.023015115049103     0.000000000000000     0.000000000000000     0.023015115049103     0.000000000000000
   21      0.000000000000000     0.000000000000000     0.000000000000000     0.000000000000000     0.000000000000000
   22      0.000000000000000     0.000000000000000     0.000000000000000     0.000000000000000     0.000000000000000
   23      0.023015115049103     0.000000000000000     0.000000000000000     0.023015115049103     0.000000000000000
   24      0.000000000000000     0.000000000000000     0.000000000000000     0.000000000000000     0.000000000000000
   25      0.000000000000000     0.000000000000000     0.000000000000000     0.000000000000000     0.000000000000000
   26      0.023015115049103     0.000000000000000     0.000000000000000     0.023015115049103     0.000000000000000

                  25                    26        

    0      0.000000000000000     0.000000000000000
    1      0.000000000000000     0.000000000000000
    2      0.000000000000000    -0.005387485596694
    3      0.000000000000000     0.000000000000000
    4      0.000000000000000     0.000000000000000
    5      0.000000000000000    -0.001130975599428
    6      0.000000000000000     0.000000000000000
    7      0.000000000000000     0.000000000000000
    8      0.000000000000000    -0.011020132966022
    9      0.000000000000000     0.167769288702084
   10      0.000000000000000     0.000000000000000
   11      0.000000000000000    -0.037260933017134
   12      0.000000000000000    -0.167769288702084
   13      0.000000000000000     0.000000000000000
   14      0.000000000000000    -0.037260933017134
   15      0.000000000000000     0.000000000000000
   16      0.000000000000000     0.000000000000000
   17      0.000000000000000     0.023015115049103
   18      0.000000000000000     0.000000000000000
   19      0.000000000000000     0.000000000000000
   20      0.000000000000000     0.023015115049103
   21      0.000000000000000     0.000000000000000
   22      0.000000000000000     0.000000000000000
   23      0.000000000000000     0.023015115049103
   24      0.000000000000000     0.000000000000000
   25      0.000000000000000     0.000000000000000
   26      0.000000000000000     0.023015115049103

-------------------------------------------------------------

 #  #
 Irrep: 1
      1: -185.3746693
      2: 600.8859397
      3: 895.6083713
      4: 1160.0951660
      5: 3244.2531247


            *********************************************
            * Thermodynamic Analysis by R.A. King, 2012 *
            *********************************************


    Not all frequencies have been computed, skipping thermodynamic analysis.
	B2 finite-diffence frequencies with 5-pt. formula to 1 cm^-1......PASSED

*** Psi4 exiting successfully. Buy a developer a beer!
