    -----------------------------------------------------------------------
          Psi4: An Open-Source Ab Initio Electronic Structure Package
                              Psi4 1.0rc605 Driver

                          Git: Rev {inversion} 02d8816 dirty

    J. M. Turney, A. C. Simmonett, R. M. Parrish, E. G. Hohenstein,
    F. A. Evangelista, J. T. Fermann, B. J. Mintz, L. A. Burns, J. J. Wilke,
    M. L. Abrams, N. J. Russ, M. L. Leininger, C. L. Janssen, E. T. Seidl,
    W. D. Allen, H. F. Schaefer, R. A. King, E. F. Valeev, C. D. Sherrill,
    and T. D. Crawford, WIREs Comput. Mol. Sci. 2, 556-565 (2012)
    (doi: 10.1002/wcms.93)

                         Additional Contributions by
    A. E. DePrince, U. Bozkaya, A. Yu. Sokolov, D. G. A. Smith, R. Di Remigio,
    R. M. Richard, J. F. Gonthier, H. R. McAlexander, M. Saitow, and
    B. P. Pritchard
    -----------------------------------------------------------------------


    Psi4 started on: Thu Oct  6 23:34:58 2016

    Process ID:  20773
    PSIDATADIR: /theoryfs2/ds/cdsgroup/psi4-compile/psi4dgas/psi4/objdir2/stage/theoryfs2/ds/cdsgroup/psi4-compile/psi4dgas/install-psi4/share/psi4

  Memory set to 256.000 MiB by Python script.

  ==> Input File <==

--------------------------------------------------------------------------
#! dmrg-caspt2 on nitrogen

molecule N2 {
  N       0.0000   0.0000   0.0000
  N       0.0000   0.0000   2.1180
units au
}

set basis          cc-pVDZ
set reference      rhf
set e_convergence  1e-12
set d_convergence  1e-12

set dmrg_irrep                0
set dmrg_multiplicity         1
set restricted_docc           [ 3 , 0 , 0 , 0 , 0 , 3 , 0 , 0 ]
set active                    [ 1 , 0 , 1 , 1 , 0 , 1 , 1 , 1 ]

set dmrg_sweep_states         [   500,  1000]
set dmrg_sweep_energy_conv    [ 1e-10, 1e-10]
set dmrg_sweep_dvdson_rtol    [  1e-5, 1e-10]
set dmrg_sweep_max_sweeps     [     5,     5]
set dmrg_sweep_noise_prefac   [  0.05,  0.05]
set dmrg_print_corr           true
set dmrg_mps_write            false

set dmrg_scf_grad_thr         1e-6
set dmrg_unitary_write        true
set dmrg_diis                 true
set dmrg_scf_diis_thr         1e-2
set dmrg_diis_write           true

set dmrg_excitation           0   # Ground state
set dmrg_scf_state_avg        false
set dmrg_scf_active_space     NO  # INPUT; NO; LOC
set dmrg_local_init           false

set dmrg_caspt2_orbs          pseudocanonical
set dmrg_caspt2_ipea          0.0
set dmrg_caspt2_imag          0.0

energy("dmrg-caspt2")

compare_values(-107.2576689206, get_variable("DMRG-SCF ENERGY"), 5, "DMRG-SCF Energy")   #TEST
compare_values(-107.5036855148, get_variable("CURRENT ENERGY"), 5, "DMRG-CASPT2 Energy")   #TEST

--------------------------------------------------------------------------
    There are an even number of electrons - assuming singlet.
    Specify the multiplicity in the molecule input block.


         ---------------------------------------------------------
                                   SCF
            by Justin Turney, Rob Parrish, and Andy Simmonett
                              RHF Reference
                        1 Threads,    256 MiB Core
         ---------------------------------------------------------

  ==> Geometry <==

    Molecular point group: d2h
    Full point group: D_inf_h

    Geometry (in Bohr), charge = 0, multiplicity = 1:

       Center              X                  Y                   Z               Mass       
    ------------   -----------------  -----------------  -----------------  -----------------
           N          0.000000000000     0.000000000000    -1.059000000000    14.003074004780
           N          0.000000000000     0.000000000000     1.059000000000    14.003074004780

  Running in d2h symmetry.

  Rotational constants: A = ************  B =      1.91668  C =      1.91668 [cm^-1]
  Rotational constants: A = ************  B =  57460.53086  C =  57460.53086 [MHz]
  Nuclear repulsion =   23.135033050047216

  Charge       = 0
  Multiplicity = 1
  Electrons    = 14
  Nalpha       = 7
  Nbeta        = 7

  ==> Algorithm <==

  SCF Algorithm Type is PK.
  DIIS enabled.
  MOM disabled.
  Fractional occupation disabled.
  Guess Type is SAD.
  Energy threshold   = 1.00e-12
  Density threshold  = 1.00e-12
  Integral threshold = 0.00e+00

  ==> Primary Basis <==

  Basis Set: file /theoryfs2/ds/cdsgroup/psi4-compile/psi4dgas/psi4/objdir2/stage/theoryfs2/ds/cdsgroup/psi4-compile/psi4dgas/install-psi4/share/psi4/basis/cc-pvdz.gbs
    Number of shells: 12
    Number of basis function: 28
    Number of Cartesian functions: 30
    Spherical Harmonics?: true
    Max angular momentum: 2

  ==> Pre-Iterations <==

   -------------------------------------------------------
    Irrep   Nso     Nmo     Nalpha   Nbeta   Ndocc  Nsocc
   -------------------------------------------------------
     Ag         7       7       0       0       0       0
     B1g        1       1       0       0       0       0
     B2g        3       3       0       0       0       0
     B3g        3       3       0       0       0       0
     Au         1       1       0       0       0       0
     B1u        7       7       0       0       0       0
     B2u        3       3       0       0       0       0
     B3u        3       3       0       0       0       0
   -------------------------------------------------------
    Total      28      28       7       7       7       0
   -------------------------------------------------------

  ==> Integral Setup <==

  Using in-core PK algorithm.
   Calculation information:
      Number of atoms:                   2
      Number of AO shells:              12
      Number of primitives:             44
      Number of atomic orbitals:        30
      Number of basis functions:        28

      Integral cutoff                 1.00e-12
      Number of threads:                 1

  Performing in-core PK
  Using 165242 doubles for integral storage.
  We computed 3081 shell quartets total.
  Whereas there are 3081 unique shell quartets.
  ==> DiskJK: Disk-Based J/K Matrices <==

    J tasked:                  Yes
    K tasked:                  Yes
    wK tasked:                  No
    Memory (MB):               183
    Schwarz Cutoff:          1E-12

    OpenMP threads:              1
  Minimum eigenvalue in the overlap matrix is 6.7007799604E-03.
  Using Symmetric Orthogonalization.


Warning! SAD is temporarily broken, switching to CORE!

  SCF Guess: Core (One-Electron) Hamiltonian.

  ==> Iterations <==

                        Total Energy        Delta E     RMS |[F,P]|

    Occupation by irrep:
             Ag   B1g   B2g   B3g    Au   B1u   B2u   B3u 
    DOCC [     3,    0,    0,    0,    0,    2,    1,    1 ]

   @RHF iter   1:  -100.13433650211508   -1.00134e+02   2.51611e-01 
   @RHF iter   2:  -106.64525717744397   -6.51092e+00   1.83540e-01 DIIS
   @RHF iter   3:  -108.86028803747804   -2.21503e+00   3.59318e-02 DIIS
   @RHF iter   4:  -108.94626478329617   -8.59767e-02   5.30070e-03 DIIS
   @RHF iter   5:  -108.94929108806367   -3.02630e-03   9.48088e-04 DIIS
   @RHF iter   6:  -108.94937716341224   -8.60753e-05   8.42399e-05 DIIS
   @RHF iter   7:  -108.94937786723672   -7.03824e-07   1.22139e-05 DIIS
   @RHF iter   8:  -108.94937787883359   -1.15969e-08   1.53525e-06 DIIS
   @RHF iter   9:  -108.94937787901679   -1.83206e-10   1.01532e-07 DIIS
   @RHF iter  10:  -108.94937787901779   -9.94760e-13   8.60703e-09 DIIS
   @RHF iter  11:  -108.94937787901777    1.42109e-14   8.18431e-10 DIIS
   @RHF iter  12:  -108.94937787901777    0.00000e+00   6.57066e-11 DIIS
   @RHF iter  13:  -108.94937787901783   -5.68434e-14   8.66598e-12 DIIS
   @RHF iter  14:  -108.94937787901789   -5.68434e-14   1.02813e-12 DIIS
   @RHF iter  15:  -108.94937787901783    5.68434e-14   1.56242e-13 DIIS

  ==> Post-Iterations <==

    Orbital Energies (a.u.)
    -----------------------

    Doubly Occupied:                                                      

       1Ag   -15.693712     1B1u  -15.690731     2Ag    -1.454249  
       2B1u   -0.781546     3Ag    -0.624167     1B2u   -0.598535  
       1B3u   -0.598535  

    Virtual:                                                              

       1B2g    0.163558     1B3g    0.163558     3B1u    0.586680  
       4Ag     0.828753     2B2u    0.878573     2B3u    0.878573  
       5Ag     0.989625     2B3g    1.045916     2B2g    1.045916  
       4B1u    1.109574     5B1u    1.620391     1B1g    1.765040  
       6Ag     1.765040     3B2u    1.859141     3B3u    1.859141  
       1Au     2.283338     6B1u    2.283338     7Ag     2.846742  
       3B3g    2.970439     3B2g    2.970439     7B1u    3.235993  

    Final Occupation by Irrep:
             Ag   B1g   B2g   B3g    Au   B1u   B2u   B3u 
    DOCC [     3,    0,    0,    0,    0,    2,    1,    1 ]

  Energy converged.

  @RHF Final Energy:  -108.94937787901783

   => Energetics <=

    Nuclear Repulsion Energy =             23.1350330500472161
    One-Electron Energy =                -193.2858766552033671
    Two-Electron Energy =                  61.2014657261383235
    DFT Exchange-Correlation Energy =       0.0000000000000000
    Empirical Dispersion Energy =           0.0000000000000000
    PCM Polarization Energy =               0.0000000000000000
    EFP Energy =                            0.0000000000000000
    Total Energy =                       -108.9493778790178311

    Alert: EFP and PCM quantities not currently incorporated into SCF psivars.

Properties will be evaluated at   0.000000,   0.000000,   0.000000 Bohr

Properties computed using the SCF density matrix

  Nuclear Dipole Moment: (a.u.)
     X:     0.0000      Y:     0.0000      Z:     0.0000

  Electronic Dipole Moment: (a.u.)
     X:     0.0000      Y:     0.0000      Z:     0.0000

  Dipole Moment: (a.u.)
     X:     0.0000      Y:     0.0000      Z:     0.0000     Total:     0.0000

  Dipole Moment: (Debye)
     X:     0.0000      Y:     0.0000      Z:     0.0000     Total:     0.0000

 MINTS: Wrapper to libmints.
   by Justin Turney

   Calculation information:
      Number of atoms:                   2
      Number of AO shells:              12
      Number of SO shells:               6
      Number of primitives:             44
      Number of atomic orbitals:        30
      Number of basis functions:        28

      Number of irreps:                  8
      Integral cutoff                 0.00e+00
      Number of functions per irrep: [   7    1    3    3    1    7    3    3 ]

 OEINTS: Overlap, kinetic, potential, dipole, and quadrupole integrals
         stored in file 35.

      Computing two-electron integrals...done
      Computed 11509 non-zero two-electron integrals.
        Stored in file 33.

Psi4 symmetry group was found to be <d2h>.
wfn_irrep   = 0
wfn_multp   = 1
numOrbitals = [ 7 , 1 , 3 , 3 , 1 , 7 , 3 , 3 ]
R(O)HF DOCC = [ 3 , 0 , 0 , 0 , 0 , 2 , 1 , 1 ]
R(O)HF SOCC = [ 0 , 0 , 0 , 0 , 0 , 0 , 0 , 0 ]
frozen_docc = [ 3 , 0 , 0 , 0 , 0 , 3 , 0 , 0 ]
active      = [ 1 , 0 , 1 , 1 , 0 , 1 , 1 , 1 ]
virtual     = [ 3 , 1 , 2 , 2 , 1 , 3 , 2 , 2 ]
nElectrons  = 14
nEl. active = 2
###########################################################
###                                                     ###
###                       DMRG-SCF                      ###
###                                                     ###
###            CheMPS2 by Sebastian Wouters             ###
###        https://github.com/SebWouters/CheMPS2        ###
###   Comput. Phys. Commun. 185 (6), 1501-1514 (2014)   ###
###                                                     ###
###########################################################

Number of variables in the x-matrix = 38
CheMPS2 output is temporarily written to the file /theoryfs2/ds/cdsgroup/psi4-compile/psi4dgas/psi4/objdir2/tests/dmrg/dmrg-caspt2-small/output.dat.chemps2 and will be copied here.
	Presorting SO-basis two-electron integrals.
	Sorting File: SO Ints (nn|nn) nbuckets = 1
	Transforming the one-electron integrals and constructing Fock matrices
	Starting first half-transformation.
	Sorting half-transformed integrals.
	First half integral transformation complete.
	Starting second half-transformation.
	Two-electron integral transformation complete.
CheMPS2 output is temporarily written to the file /theoryfs2/ds/cdsgroup/psi4-compile/psi4dgas/psi4/objdir2/tests/dmrg/dmrg-caspt2-small/output.dat.chemps2 and will be copied here.

   CheMPS2: a spin-adapted implementation of DMRG for ab initio quantum chemistry
   Copyright (C) 2013-2016 Sebastian Wouters

   This program is free software; you can redistribute it and/or modify
   it under the terms of the GNU General Public License as published by
   the Free Software Foundation; either version 2 of the License, or
   (at your option) any later version.

   This program is distributed in the hope that it will be useful,
   but WITHOUT ANY WARRANTY; without even the implied warranty of
   MERCHANTABILITY or FITNESS FOR A PARTICULAR PURPOSE.  See the
   GNU General Public License for more details.

   You should have received a copy of the GNU General Public License along
   with this program; if not, write to the Free Software Foundation, Inc.,
   51 Franklin Street, Fifth Floor, Boston, MA 02110-1301 USA.

   Stats: nIt(DAVIDSON) = 3
Energy at sites (4, 5) is -107.239896686576
   Stats: nIt(DAVIDSON) = 4
Energy at sites (3, 4) is -107.257474288401
   Stats: nIt(DAVIDSON) = 4
Energy at sites (2, 3) is -107.25766043583
   Stats: nIt(DAVIDSON) = 4
Energy at sites (1, 2) is -107.257668680777
******************************************************************
***  Information on left sweep 0 of instruction 0:
***     Elapsed wall time        = 0.003105 seconds
***       |--> S.join            = 2.6e-05 seconds
***       |--> S.solve           = 0.000711 seconds
***       |--> S.split           = 0.000126 seconds
***       |--> Tensor update     = 0.00222 seconds
***              |--> create     = 0.00019 seconds
***              |--> destroy    = 3e-05 seconds
***              |--> disk write = 0.001176 seconds
***              |--> disk read  = 0.000752 seconds
***              |--> calc       = 6.9e-05 seconds
***     Disk write bandwidth     = 0.622807716836735 MB/s
***     Disk read  bandwidth     = 0.973965259308511 MB/s
***     Minimum energy           = -107.257668680777
***     Maximum discarded weight = 0
******************************************************************
   Stats: nIt(DAVIDSON) = 1
Energy at sites (0, 1) is -107.257668680777
   Stats: nIt(DAVIDSON) = 1
Energy at sites (1, 2) is -107.257668680777
   Stats: nIt(DAVIDSON) = 3
Energy at sites (2, 3) is -107.257668686276
   Stats: nIt(DAVIDSON) = 4
Energy at sites (3, 4) is -107.257668695877
******************************************************************
***  Information on right sweep 0 of instruction 0:
***     Elapsed wall time        = 0.002822 seconds
***       |--> S.join            = 2.2e-05 seconds
***       |--> S.solve           = 0.000415 seconds
***       |--> S.split           = 6.4e-05 seconds
***       |--> Tensor update     = 0.002303 seconds
***              |--> create     = 0.000185 seconds
***              |--> destroy    = 3e-05 seconds
***              |--> disk write = 0.001254 seconds
***              |--> disk read  = 0.000773 seconds
***              |--> calc       = 5.6e-05 seconds
***     Disk write bandwidth     = 0.584068480861244 MB/s
***     Disk read  bandwidth     = 0.947505659767141 MB/s
***     Minimum energy           = -107.257668695877
***     Maximum discarded weight = 0
***     Energy difference with respect to previous leftright sweep = 107.257668695877
******************************************************************
   Stats: nIt(DAVIDSON) = 1
Energy at sites (4, 5) is -107.257668695877
   Stats: nIt(DAVIDSON) = 1
Energy at sites (3, 4) is -107.257668695877
   Stats: nIt(DAVIDSON) = 1
Energy at sites (2, 3) is -107.257668695877
   Stats: nIt(DAVIDSON) = 1
Energy at sites (1, 2) is -107.257668695877
******************************************************************
***  Information on left sweep 1 of instruction 0:
***     Elapsed wall time        = 0.002458 seconds
***       |--> S.join            = 2.3e-05 seconds
***       |--> S.solve           = 0.000199 seconds
***       |--> S.split           = 6.1e-05 seconds
***       |--> Tensor update     = 0.002157 seconds
***              |--> create     = 0.000181 seconds
***              |--> destroy    = 2.8e-05 seconds
***              |--> disk write = 0.001148 seconds
***              |--> disk read  = 0.000742 seconds
***              |--> calc       = 5.3e-05 seconds
***     Disk write bandwidth     = 0.637998148954704 MB/s
***     Disk read  bandwidth     = 0.98709147574124 MB/s
***     Minimum energy           = -107.257668695877
***     Maximum discarded weight = 0
******************************************************************
   Stats: nIt(DAVIDSON) = 1
Energy at sites (0, 1) is -107.257668695877
   Stats: nIt(DAVIDSON) = 1
Energy at sites (1, 2) is -107.257668695877
   Stats: nIt(DAVIDSON) = 1
Energy at sites (2, 3) is -107.257668695877
   Stats: nIt(DAVIDSON) = 1
Energy at sites (3, 4) is -107.257668695877
******************************************************************
***  Information on right sweep 1 of instruction 0:
***     Elapsed wall time        = 0.002521 seconds
***       |--> S.join            = 2.2e-05 seconds
***       |--> S.solve           = 0.000198 seconds
***       |--> S.split           = 6.6e-05 seconds
***       |--> Tensor update     = 0.002215 seconds
***              |--> create     = 0.000189 seconds
***              |--> destroy    = 3.1e-05 seconds
***              |--> disk write = 0.001153 seconds
***              |--> disk read  = 0.000783 seconds
***              |--> calc       = 5.5e-05 seconds
***     Disk write bandwidth     = 0.63523146140503 MB/s
***     Disk read  bandwidth     = 0.93540469348659 MB/s
***     Minimum energy           = -107.257668695877
***     Maximum discarded weight = 0
***     Energy difference with respect to previous leftright sweep = 0
******************************************************************
***  Information on completed instruction 0:
***     The reduced virtual dimension DSU(2)               = 500
***     Minimum energy encountered during all instructions = -107.257668695877
***     Minimum energy encountered during the last sweep   = -107.257668695877
***     Maximum discarded weight during the last sweep     = 0
******************************************************************
   Stats: nIt(DAVIDSON) = 1
Energy at sites (4, 5) is -107.257668695877
   Stats: nIt(DAVIDSON) = 1
Energy at sites (3, 4) is -107.257668695877
   Stats: nIt(DAVIDSON) = 4
Energy at sites (2, 3) is -107.257668695877
   Stats: nIt(DAVIDSON) = 4
Energy at sites (1, 2) is -107.257668695878
******************************************************************
***  Information on left sweep 0 of instruction 1:
***     Elapsed wall time        = 0.002753 seconds
***       |--> S.join            = 2.3e-05 seconds
***       |--> S.solve           = 0.000453 seconds
***       |--> S.split           = 6.1e-05 seconds
***       |--> Tensor update     = 0.002199 seconds
***              |--> create     = 0.000182 seconds
***              |--> destroy    = 3e-05 seconds
***              |--> disk write = 0.001192 seconds
***              |--> disk read  = 0.000734 seconds
***              |--> calc       = 5.4e-05 seconds
***     Disk write bandwidth     = 0.614447881711409 MB/s
***     Disk read  bandwidth     = 0.997849965940055 MB/s
***     Minimum energy           = -107.257668695878
***     Maximum discarded weight = 0
******************************************************************
   Stats: nIt(DAVIDSON) = 1
Energy at sites (0, 1) is -107.257668695878
   Stats: nIt(DAVIDSON) = 1
Energy at sites (1, 2) is -107.257668695878
   Stats: nIt(DAVIDSON) = 4
Energy at sites (2, 3) is -107.257668695878
   Stats: nIt(DAVIDSON) = 4
Energy at sites (3, 4) is -107.257668695878
******************************************************************
***  Information on right sweep 0 of instruction 1:
***     Elapsed wall time        = 0.002768 seconds
***       |--> S.join            = 2.4e-05 seconds
***       |--> S.solve           = 0.000453 seconds
***       |--> S.split           = 6.1e-05 seconds
***       |--> Tensor update     = 0.002212 seconds
***              |--> create     = 0.000183 seconds
***              |--> destroy    = 3.1e-05 seconds
***              |--> disk write = 0.00115 seconds
***              |--> disk read  = 0.00079 seconds
***              |--> calc       = 5.6e-05 seconds
***     Disk write bandwidth     = 0.636888586956522 MB/s
***     Disk read  bandwidth     = 0.927116297468355 MB/s
***     Minimum energy           = -107.257668695878
***     Maximum discarded weight = 0
***     Energy difference with respect to previous leftright sweep = 1.25055521493778e-12
******************************************************************
***  Information on completed instruction 1:
***     The reduced virtual dimension DSU(2)               = 1000
***     Minimum energy encountered during all instructions = -107.257668695878
***     Minimum energy encountered during the last sweep   = -107.257668695878
***     Maximum discarded weight during the last sweep     = 0
******************************************************************
********************************************
***  2-RDM and Correlations calculation  ***
********************************************
   N(N-1)                     = 2
   Double trace of DMRG 2-RDM = 2
   Econst + 0.5 * trace(2DM-A * Ham) = -107.257668695878
   NOON of irrep Ag = [ 0.000274014241795179 ].
   NOON of irrep B2g = [ 0.0316994825527679 ].
   NOON of irrep B3g = [ 0.0290035128531291 ].
   NOON of irrep B1u = [ 2.67877591960269e-05 ].
   NOON of irrep B2u = [ 0.925981823988887 ].
   NOON of irrep B3u = [ 1.01301437860423 ].
   Single-orbital entropies (Hamiltonian index order is used!) = [ 0.00135574151766887 , 0.0814143362149419 , 0.0757890695648453 , 0.000163682664830909 , 0.690405328534818 , 0.693062491143925 ].
   Idistance(0) = 1.58562311289844
   Idistance(1) = 3.01783867007722
   Idistance(2) = 6.05534575238258
***************************************************
***  Timing information 2-RDM and Correlations  ***
***************************************************
***     Elapsed wall time        = 0.006789 seconds
***       |--> MPS gauge change  = 9.8e-05 seconds
***       |--> Diagram calc      = 0.000241 seconds
***       |--> Tensor update     = 0.006398 seconds
***              |--> create     = 0.000529 seconds
***              |--> destroy    = 9.6e-05 seconds
***              |--> disk write = 0.003296 seconds
***              |--> disk read  = 0.002261 seconds
***              |--> calc       = 0.000192 seconds
***     Disk write bandwidth     = 0.666646124089806 MB/s
***     Disk read  bandwidth     = 0.971811421937196 MB/s
***************************************************
--------------------------------------------------------
Spin correlation function = 4 * ( < S_i^z S_j^z > - < S_i^z > * < S_j^z > ) 
Hamiltonian index order is used!

   Columns 1 to 6
 
    0.000000    0.000000    0.000000    0.000000    0.000000    0.000000
    0.000000    0.000000    0.000000    0.000000    0.000000    0.000000
    0.000000    0.000000    0.000000    0.000000    0.000000    0.000000
    0.000000    0.000000    0.000000    0.000000    0.000000    0.000000
    0.000000    0.000000    0.000000    0.000000    0.000000    0.000000
    0.000000    0.000000    0.000000    0.000000    0.000000    0.000000

--------------------------------------------------------
Spin-flip correlation function = < S_i^+ S_j^- > + < S_i^- S_j^+ > 
Hamiltonian index order is used!

   Columns 1 to 6
 
    0.000000    0.000000    0.000000    0.000000    0.000000    0.000000
    0.000000    0.000000    0.000000    0.000000    0.000000    0.000000
    0.000000    0.000000    0.000000    0.000000    0.000000    0.000000
    0.000000    0.000000    0.000000    0.000000    0.000000    0.000000
    0.000000    0.000000    0.000000    0.000000    0.000000    0.000000
    0.000000    0.000000    0.000000    0.000000    0.000000    0.000000

--------------------------------------------------------
Density correlation function = < n_i n_j > - < n_i > * < n_j > 
Hamiltonian index order is used!

   Columns 1 to 6
 
    0.000548   -0.000009   -0.000008   -0.000000   -0.000254   -0.000278
   -0.000009    0.062394   -0.000919   -0.000001   -0.029353   -0.032112
   -0.000008   -0.000919    0.057166   -0.000001   -0.026857   -0.029381
   -0.000000   -0.000001   -0.000001    0.000054   -0.000025   -0.000027
   -0.000254   -0.029353   -0.026857   -0.000025    0.994521   -0.938033
   -0.000278   -0.032112   -0.029381   -0.000027   -0.938033    0.999831

--------------------------------------------------------
Singlet diradical correlation function = < d_i,up d_j,down > + < d_i,down d_j,up > - < d_i,up > * < d_j,down > - < d_i,down > * < d_j,up > 
Hamiltonian index order is used!

   Columns 1 to 6
 
    -0.000000    0.000000    0.000000    0.000000    0.000000    0.000000
    0.000000    -0.000000    0.000000    0.000000    0.000000    0.000000
    0.000000    0.000000    -0.000000    0.000000    0.000000    0.000000
    0.000000    0.000000    0.000000    -0.000000    0.000000    0.000000
    0.000000    0.000000    0.000000    0.000000    -0.000000    0.000000
    0.000000    0.000000    0.000000    0.000000    0.000000    -0.000000

--------------------------------------------------------
Two-orbital mutual information = 0.5 * ( s1(i) + s1(j) - s2(i,j) ) * ( 1 - delta(i,j) ) 
Hamiltonian index order is used!

   Columns 1 to 6
 
    0           0.000395    0.000389    0.000023    0.000668    0.000680
    0.000395    0           0.010621    0.000054    0.039784    0.041165
    0.000389    0.010621    0           0.000054    0.037030    0.038294
    0.000023    0.000054    0.000054    0           0.000081    0.000082
    0.000668    0.039784    0.037030    0.000081    0           0.623493
    0.000680    0.041165    0.038294    0.000082    0.623493    0       

--------------------------------------------------------
Info on DMRG::operators rm call to system: 0
	Starting first half-transformation.
	Sorting half-transformed integrals.
	First half integral transformation complete.
	Starting second half-transformation.
	Two-electron integral transformation complete.
	Starting first half-transformation.
	Sorting half-transformed integrals.
	First half integral transformation complete.
	Starting second half-transformation.
	Two-electron integral transformation complete.
CheMPS2 output is temporarily written to the file /theoryfs2/ds/cdsgroup/psi4-compile/psi4dgas/psi4/objdir2/tests/dmrg/dmrg-caspt2-small/output.dat.chemps2 and will be copied here.
DMRGSCF::construct_gradient : Norm of the gradient = 6.74427167578045e-08
DMRGSCF::augmentedHessianNR : Augmented Hessian update found with 6 Davidson iterations.
DMRGSCF::augmentedHessianNR : Norm of the update = 7.9006605502186e-07
The DMRG-SCF energy = -107.2576686959 
################################################
###                                          ###
###   Rotation to pseudocanonical orbitals   ###
###                                          ###
################################################
###########################
###                     ###
###     DMRG-CASPT2     ###
###                     ###
###########################
	Starting first half-transformation.
	Sorting half-transformed integrals.
	First half integral transformation complete.
	Starting second half-transformation.
	Two-electron integral transformation complete.
CheMPS2 output is temporarily written to the file /theoryfs2/ds/cdsgroup/psi4-compile/psi4dgas/psi4/objdir2/tests/dmrg/dmrg-caspt2-small/output.dat.chemps2 and will be copied here.

   CheMPS2: a spin-adapted implementation of DMRG for ab initio quantum chemistry
   Copyright (C) 2013-2016 Sebastian Wouters

   This program is free software; you can redistribute it and/or modify
   it under the terms of the GNU General Public License as published by
   the Free Software Foundation; either version 2 of the License, or
   (at your option) any later version.

   This program is distributed in the hope that it will be useful,
   but WITHOUT ANY WARRANTY; without even the implied warranty of
   MERCHANTABILITY or FITNESS FOR A PARTICULAR PURPOSE.  See the
   GNU General Public License for more details.

   You should have received a copy of the GNU General Public License along
   with this program; if not, write to the Free Software Foundation, Inc.,
   51 Franklin Street, Fifth Floor, Boston, MA 02110-1301 USA.

   Stats: nIt(DAVIDSON) = 3
Energy at sites (4, 5) is -107.239754140764
   Stats: nIt(DAVIDSON) = 4
Energy at sites (3, 4) is -107.239893744765
   Stats: nIt(DAVIDSON) = 4
Energy at sites (2, 3) is -107.25750494068
   Stats: nIt(DAVIDSON) = 4
Energy at sites (1, 2) is -107.257533761955
******************************************************************
***  Information on left sweep 0 of instruction 0:
***     Elapsed wall time        = 0.003008 seconds
***       |--> S.join            = 2.4e-05 seconds
***       |--> S.solve           = 0.000622 seconds
***       |--> S.split           = 6.9e-05 seconds
***       |--> Tensor update     = 0.002271 seconds
***              |--> create     = 0.0002 seconds
***              |--> destroy    = 2.9e-05 seconds
***              |--> disk write = 0.001196 seconds
***              |--> disk read  = 0.000783 seconds
***              |--> calc       = 5.7e-05 seconds
***     Disk write bandwidth     = 0.612392872073579 MB/s
***     Disk read  bandwidth     = 0.93540469348659 MB/s
***     Minimum energy           = -107.257533761955
***     Maximum discarded weight = 0
******************************************************************
   Stats: nIt(DAVIDSON) = 1
Energy at sites (0, 1) is -107.257533761955
   Stats: nIt(DAVIDSON) = 1
Energy at sites (1, 2) is -107.257533761955
   Stats: nIt(DAVIDSON) = 3
Energy at sites (2, 3) is -107.257533810198
   Stats: nIt(DAVIDSON) = 4
Energy at sites (3, 4) is -107.257668687868
******************************************************************
***  Information on right sweep 0 of instruction 0:
***     Elapsed wall time        = 0.002748 seconds
***       |--> S.join            = 2.3e-05 seconds
***       |--> S.solve           = 0.000403 seconds
***       |--> S.split           = 6.2e-05 seconds
***       |--> Tensor update     = 0.002242 seconds
***              |--> create     = 0.000185 seconds
***              |--> destroy    = 2.9e-05 seconds
***              |--> disk write = 0.001169 seconds
***              |--> disk read  = 0.000802 seconds
***              |--> calc       = 5.5e-05 seconds
***     Disk write bandwidth     = 0.626537104362703 MB/s
***     Disk read  bandwidth     = 0.913244233167082 MB/s
***     Minimum energy           = -107.257668687868
***     Maximum discarded weight = 0
***     Energy difference with respect to previous leftright sweep = 107.257668687868
******************************************************************
   Stats: nIt(DAVIDSON) = 1
Energy at sites (4, 5) is -107.257668687868
   Stats: nIt(DAVIDSON) = 1
Energy at sites (3, 4) is -107.257668687868
   Stats: nIt(DAVIDSON) = 2
Energy at sites (2, 3) is -107.257668692873
   Stats: nIt(DAVIDSON) = 3
Energy at sites (1, 2) is -107.257668695852
******************************************************************
***  Information on left sweep 1 of instruction 0:
***     Elapsed wall time        = 0.002711 seconds
***       |--> S.join            = 2.2e-05 seconds
***       |--> S.solve           = 0.00035 seconds
***       |--> S.split           = 7.9e-05 seconds
***       |--> Tensor update     = 0.002242 seconds
***              |--> create     = 0.000184 seconds
***              |--> destroy    = 2.9e-05 seconds
***              |--> disk write = 0.001229 seconds
***              |--> disk read  = 0.000738 seconds
***              |--> calc       = 5.7e-05 seconds
***     Disk write bandwidth     = 0.595949450772986 MB/s
***     Disk read  bandwidth     = 0.992441565040651 MB/s
***     Minimum energy           = -107.257668695852
***     Maximum discarded weight = 0
******************************************************************
   Stats: nIt(DAVIDSON) = 1
Energy at sites (0, 1) is -107.257668695852
   Stats: nIt(DAVIDSON) = 1
Energy at sites (1, 2) is -107.257668695852
   Stats: nIt(DAVIDSON) = 1
Energy at sites (2, 3) is -107.257668695852
   Stats: nIt(DAVIDSON) = 1
Energy at sites (3, 4) is -107.257668695852
******************************************************************
***  Information on right sweep 1 of instruction 0:
***     Elapsed wall time        = 0.002513 seconds
***       |--> S.join            = 2.2e-05 seconds
***       |--> S.solve           = 0.000198 seconds
***       |--> S.split           = 6.3e-05 seconds
***       |--> Tensor update     = 0.002213 seconds
***              |--> create     = 0.000182 seconds
***              |--> destroy    = 2.9e-05 seconds
***              |--> disk write = 0.00121 seconds
***              |--> disk read  = 0.000732 seconds
***              |--> calc       = 5.4e-05 seconds
***     Disk write bandwidth     = 0.605307334710744 MB/s
***     Disk read  bandwidth     = 1.00057633196721 MB/s
***     Minimum energy           = -107.257668695852
***     Maximum discarded weight = 0
***     Energy difference with respect to previous leftright sweep = 7.98337396190618e-09
******************************************************************
   Stats: nIt(DAVIDSON) = 1
Energy at sites (4, 5) is -107.257668695852
   Stats: nIt(DAVIDSON) = 1
Energy at sites (3, 4) is -107.257668695852
   Stats: nIt(DAVIDSON) = 1
Energy at sites (2, 3) is -107.257668695852
   Stats: nIt(DAVIDSON) = 1
Energy at sites (1, 2) is -107.257668695852
******************************************************************
***  Information on left sweep 2 of instruction 0:
***     Elapsed wall time        = 0.0025 seconds
***       |--> S.join            = 2.5e-05 seconds
***       |--> S.solve           = 0.000199 seconds
***       |--> S.split           = 6.6e-05 seconds
***       |--> Tensor update     = 0.002193 seconds
***              |--> create     = 0.000223 seconds
***              |--> destroy    = 3e-05 seconds
***              |--> disk write = 0.001131 seconds
***              |--> disk read  = 0.000755 seconds
***              |--> calc       = 5.3e-05 seconds
***     Disk write bandwidth     = 0.647587864721485 MB/s
***     Disk read  bandwidth     = 0.970095198675497 MB/s
***     Minimum energy           = -107.257668695852
***     Maximum discarded weight = 0
******************************************************************
   Stats: nIt(DAVIDSON) = 1
Energy at sites (0, 1) is -107.257668695852
   Stats: nIt(DAVIDSON) = 1
Energy at sites (1, 2) is -107.257668695852
   Stats: nIt(DAVIDSON) = 1
Energy at sites (2, 3) is -107.257668695852
   Stats: nIt(DAVIDSON) = 1
Energy at sites (3, 4) is -107.257668695852
******************************************************************
***  Information on right sweep 2 of instruction 0:
***     Elapsed wall time        = 0.002466 seconds
***       |--> S.join            = 2.3e-05 seconds
***       |--> S.solve           = 0.000197 seconds
***       |--> S.split           = 6.3e-05 seconds
***       |--> Tensor update     = 0.002166 seconds
***              |--> create     = 0.000182 seconds
***              |--> destroy    = 2.9e-05 seconds
***              |--> disk write = 0.00114 seconds
***              |--> disk read  = 0.000754 seconds
***              |--> calc       = 5.5e-05 seconds
***     Disk write bandwidth     = 0.642475328947368 MB/s
***     Disk read  bandwidth     = 0.971381797082228 MB/s
***     Minimum energy           = -107.257668695852
***     Maximum discarded weight = 0
***     Energy difference with respect to previous leftright sweep = 0
******************************************************************
***  Information on completed instruction 0:
***     The reduced virtual dimension DSU(2)               = 500
***     Minimum energy encountered during all instructions = -107.257668695852
***     Minimum energy encountered during the last sweep   = -107.257668695852
***     Maximum discarded weight during the last sweep     = 0
******************************************************************
   Stats: nIt(DAVIDSON) = 3
Energy at sites (4, 5) is -107.257668695867
   Stats: nIt(DAVIDSON) = 4
Energy at sites (3, 4) is -107.257668695878
   Stats: nIt(DAVIDSON) = 4
Energy at sites (2, 3) is -107.257668695878
   Stats: nIt(DAVIDSON) = 4
Energy at sites (1, 2) is -107.257668695878
******************************************************************
***  Information on left sweep 0 of instruction 1:
***     Elapsed wall time        = 0.002894 seconds
***       |--> S.join            = 2.3e-05 seconds
***       |--> S.solve           = 0.000627 seconds
***       |--> S.split           = 6.8e-05 seconds
***       |--> Tensor update     = 0.002158 seconds
***              |--> create     = 0.000187 seconds
***              |--> destroy    = 3.1e-05 seconds
***              |--> disk write = 0.001145 seconds
***              |--> disk read  = 0.000738 seconds
***              |--> calc       = 5.3e-05 seconds
***     Disk write bandwidth     = 0.639669759825327 MB/s
***     Disk read  bandwidth     = 0.992441565040651 MB/s
***     Minimum energy           = -107.257668695878
***     Maximum discarded weight = 0
******************************************************************
   Stats: nIt(DAVIDSON) = 1
Energy at sites (0, 1) is -107.257668695878
   Stats: nIt(DAVIDSON) = 1
Energy at sites (1, 2) is -107.257668695878
   Stats: nIt(DAVIDSON) = 2
Energy at sites (2, 3) is -107.257668695878
   Stats: nIt(DAVIDSON) = 2
Energy at sites (3, 4) is -107.257668695878
******************************************************************
***  Information on right sweep 0 of instruction 1:
***     Elapsed wall time        = 0.00258700000000004 seconds
***       |--> S.join            = 2.3e-05 seconds
***       |--> S.solve           = 0.000285 seconds
***       |--> S.split           = 6.2e-05 seconds
***       |--> Tensor update     = 0.00220000000000005 seconds
***              |--> create     = 0.000196 seconds
***              |--> destroy    = 3e-05 seconds
***              |--> disk write = 0.00113800000000005 seconds
***              |--> disk read  = 0.000776 seconds
***              |--> calc       = 5.5e-05 seconds
***     Disk write bandwidth     = 0.643604459578182 MB/s
***     Disk read  bandwidth     = 0.943842622422681 MB/s
***     Minimum energy           = -107.257668695878
***     Maximum discarded weight = 0
***     Energy difference with respect to previous leftright sweep = 2.64179789155605e-11
******************************************************************
***  Information on completed instruction 1:
***     The reduced virtual dimension DSU(2)               = 1000
***     Minimum energy encountered during all instructions = -107.257668695878
***     Minimum energy encountered during the last sweep   = -107.257668695878
***     Maximum discarded weight during the last sweep     = 0
******************************************************************
****************************************************
***  2-RDM, 3-RDM, and Correlations calculation  ***
****************************************************
   N(N-1)                     = 2
   Double trace of DMRG 2-RDM = 2
   Econst + 0.5 * trace(2DM-A * Ham) = -107.257668695878
   NOON of irrep Ag = [ 0.000274014243470438 ].
   NOON of irrep B2g = [ 0.0316994825607241 ].
   NOON of irrep B3g = [ 0.0290035128227938 ].
   NOON of irrep B1u = [ 2.67877584972054e-05 ].
   NOON of irrep B2u = [ 0.925981823430941 ].
   NOON of irrep B3u = [ 1.01301437918357 ].
   Single-orbital entropies (Hamiltonian index order is used!) = [ 0.0013557415251199 , 0.081414336231366 , 0.0757890695008547 , 0.0001636826609103 , 0.690405328493444 , 0.693062491136385 ].
   Idistance(0) = 1.58562311279305
   Idistance(1) = 3.01783866988896
   Idistance(2) = 6.05534575200562
   N(N-1)(N-2)                = 0
   Triple trace of DMRG 3-RDM = 0
***********************************************************
***  Timing information 2-RDM, 3-RDM, and Correlations  ***
***********************************************************
***     Elapsed wall time        = 0.007482 seconds
***       |--> MPS gauge change  = 8.3e-05 seconds
***       |--> Diagram calc      = 0.000595 seconds
***       |--> Tensor update     = 0.006726 seconds
***              |--> create     = 0.0008 seconds
***              |--> destroy    = 0.000148 seconds
***              |--> disk write = 0.003241 seconds
***              |--> disk read  = 0.00233 seconds
***              |--> calc       = 0.000216 seconds
***     Disk write bandwidth     = 0.677959156124653 MB/s
***     Disk read  bandwidth     = 0.943032457081545 MB/s
***********************************************************
CheMPS2::DMRG::Symm4RDM( 0 , 0 ) : Elapsed wall time = 0.010905 seconds.
CheMPS2::DMRG::Symm4RDM( 1 , 1 ) : Elapsed wall time = 0.010639 seconds.
CheMPS2::DMRG::Symm4RDM( 2 , 2 ) : Elapsed wall time = 0.010597 seconds.
CheMPS2::DMRG::Symm4RDM( 3 , 3 ) : Elapsed wall time = 0.010627 seconds.
CheMPS2::DMRG::Symm4RDM( 4 , 4 ) : Elapsed wall time = 0.01061 seconds.
CheMPS2::DMRG::Symm4RDM( 5 , 5 ) : Elapsed wall time = 0.010636 seconds.
Info on DMRG::operators rm call to system: 0
	Starting first half-transformation.
	Sorting half-transformed integrals.
	First half integral transformation complete.
	Starting second half-transformation.
	Two-electron integral transformation complete.
	Starting first half-transformation.
	Sorting half-transformed integrals.
	First half integral transformation complete.
	Starting second half-transformation.
	Two-electron integral transformation complete.
CASPT2 : Norm F - F_pseudocan = 9.29444e-12
CheMPS2 output is temporarily written to the file /theoryfs2/ds/cdsgroup/psi4-compile/psi4dgas/psi4/objdir2/tests/dmrg/dmrg-caspt2-small/output.dat.chemps2 and will be copied here.
CASPT2 : Old size V_SD space  = 4678
CASPT2 : Wall time tensors    = 0.032776 seconds
CASPT2 : New size V_SD space  = 3076
CASPT2 : Wall time diag(ovlp) = 0.002408 seconds
CASPT2 : Solution algorithm   = Davidson
CASPT2 : Minimum(diagonal)    = -3.02076178665223
CASPT2 : Number of iterations = 39
CASPT2 : Residual norm        = 9.78201344335791e-11
CASPT2 : Reference weight     = 0.848442356864114
CASPT2 : Wall time solution   = 0.040234 seconds
CASPT2 : E2 [DIAGONAL]        = -0.224062140824914
CASPT2 : E2 [NON-VARIATIONAL] = -0.246019789466045
CASPT2 : E2 [VARIATIONAL]     = -0.24601978946618
The DMRG-CASPT2 variational correction energy = -0.2460197895 
The DMRG-CASPT2 energy = -107.5036884853 
	DMRG-SCF Energy...................................................PASSED
	DMRG-CASPT2 Energy................................................PASSED

*** Psi4 exiting successfully. Buy a developer a beer!
