
    -----------------------------------------------------------------------
          Psi4: An Open-Source Ab Initio Electronic Structure Package
                               Psi4 undefined 

                         Git: Rev {nbody} 3d7fd3c dirty


    D. G. A. Smith, L. A. Burns, A. C. Simmonett, R. M. Parrish,
    M. C. Schieber, R. Galvelis, P. Kraus, H. Kruse, R. Di Remigio,
    A. Alenaizan, A. M. James, S. Lehtola, J. P. Misiewicz, M. Scheurer,
    R. A. Shaw, J. B. Schriber, Y. Xie, Z. L. Glick, D. A. Sirianni,
    J. S. O'Brien, J. M. Waldrop, A. Kumar, E. G. Hohenstein,
    B. P. Pritchard, B. R. Brooks, H. F. Schaefer III, A. Yu. Sokolov,
    K. Patkowski, A. E. DePrince III, U. Bozkaya, R. A. King,
    F. A. Evangelista, J. M. Turney, T. D. Crawford, C. D. Sherrill,
    J. Chem. Phys. 152(18) 184108 (2020). https://doi.org/10.1063/5.0006002

                            Additional Code Authors
    E. T. Seidl, C. L. Janssen, E. F. Valeev, M. L. Leininger,
    J. F. Gonthier, R. M. Richard, H. R. McAlexander, M. Saitow, X. Wang,
    P. Verma, M. H. Lechner, and A. Jiang

             Previous Authors, Complete List of Code Contributors,
                       and Citations for Specific Modules
    https://github.com/psi4/psi4/blob/master/codemeta.json
    https://github.com/psi4/psi4/graphs/contributors
    http://psicode.org/psi4manual/master/introduction.html#citing-psifour

    -----------------------------------------------------------------------


    Psi4 started on: Monday, 03 January 2022 03:21PM

    Process ID: 207915
    Host:       Swift-SF514-54GT
    PSIDATADIR: /home/alenaizan/Downloads/temp/psi4/objdir/stage/share/psi4
    Memory:     500.0 MiB
    Threads:    1
    
  ==> Input File <==

--------------------------------------------------------------------------
#! Computation of VMFC-corrected HF dimer Hessian 

molecule dimer {
F    0.00000000  0.00000000  0.00000000
H    0.51473774 -0.75619513  0.00000000
--
F    2.58876456 -0.18386718  0.00000000
H    2.07536419  0.57320417  0.00000000
no_com
no_reorient
}

for bsse_type in ["nocp", "cp", "vmfc"]:
    h, wfn = psi4.hessian('SCF/STO-3G', molecule=dimer, bsse_type=bsse_type, max_nbody=2, return_total_data=True, return_wfn=True)

    h_fd_g, wfn_fd = psi4.hessian('SCF/STO-3G', molecule=dimer, bsse_type=bsse_type, max_nbody=2, return_total_data=True,
                                            dertype=1, return_wfn=True)

    compare_arrays(h, h_fd_g, 5, bsse_type + '-corrected Hessian from finite differences of the gradient') #TEST
--------------------------------------------------------------------------


   ===> N-Body Interaction Abacus <===
        BSSE Treatment:                     nocp
        Number of 1-body computations:     2
        Number of 2-body computations:     1

   ==> N-Body: Now computing 1-body complexes <==


       N-Body: Computing complex (1/2) with fragments (1,) in the basis of fragments (1,).


Scratch directory: /tmp/
gradient() will perform analytic gradient computation.

*** tstart() called on Swift-SF514-54GT
*** at Mon Jan  3 15:21:50 2022

   => Loading Basis Set <=

    Name: STO-3G
    Role: ORBITAL
    Keyword: BASIS
    atoms 1 entry F          line    91 file /home/alenaizan/Downloads/temp/psi4/objdir/stage/share/psi4/basis/sto-3g.gbs 
    atoms 2 entry H          line    19 file /home/alenaizan/Downloads/temp/psi4/objdir/stage/share/psi4/basis/sto-3g.gbs 


         ---------------------------------------------------------
                                   SCF
               by Justin Turney, Rob Parrish, Andy Simmonett
                          and Daniel G. A. Smith
                              RHF Reference
                        1 Threads,    500 MiB Core
         ---------------------------------------------------------

  ==> Geometry <==

    Molecular point group: cs
    Full point group: C_inf_v

    Geometry (in Angstrom), charge = 0, multiplicity = 1:

       Center              X                  Y                   Z               Mass       
    ------------   -----------------  -----------------  -----------------  -----------------
         F            0.000000000000     0.000000000000     0.000000000000    18.998403162730
         H            0.514737740000    -0.756195130000     0.000000000000     1.007825032230

  Running in cs symmetry.

  Rotational constants: A = ************  B =     19.98927  C =     19.98927 [cm^-1]
  Rotational constants: A = ************  B = 599263.24905  C = 599263.24905 [MHz]
  Nuclear repulsion =    5.206386862513993

  Charge       = 0
  Multiplicity = 1
  Electrons    = 10
  Nalpha       = 5
  Nbeta        = 5

  ==> Algorithm <==

  SCF Algorithm Type is DF.
  DIIS enabled.
  MOM disabled.
  Fractional occupation disabled.
  Guess Type is SAD.
  Energy threshold   = 1.00e-08
  Density threshold  = 1.00e-08
  Integral threshold = 1.00e-12

  ==> Primary Basis <==

  Basis Set: STO-3G
    Blend: STO-3G
    Number of shells: 4
    Number of basis functions: 6
    Number of Cartesian functions: 6
    Spherical Harmonics?: true
    Max angular momentum: 1

   => Loading Basis Set <=

    Name: (STO-3G AUX)
    Role: JKFIT
    Keyword: DF_BASIS_SCF
    atoms 1 entry F          line   378 file /home/alenaizan/Downloads/temp/psi4/objdir/stage/share/psi4/basis/def2-universal-jkfit.gbs 
    atoms 2 entry H          line    18 file /home/alenaizan/Downloads/temp/psi4/objdir/stage/share/psi4/basis/def2-universal-jkfit.gbs 

  ==> Integral Setup <==

  DFHelper Memory: AOs need 0.000 GiB; user supplied 0.366 GiB. Using in-core AOs.

  ==> MemDFJK: Density-Fitted J/K Matrices <==

    J tasked:                   Yes
    K tasked:                   Yes
    wK tasked:                   No
    OpenMP threads:               1
    Memory [MiB]:               375
    Algorithm:                 Core
    Schwarz Cutoff:           1E-12
    Mask sparsity (%):       0.0000
    Fitting Condition:        1E-10

   => Auxiliary Basis Set <=

  Basis Set: (STO-3G AUX)
    Blend: DEF2-UNIVERSAL-JKFIT
    Number of shells: 31
    Number of basis functions: 95
    Number of Cartesian functions: 113
    Spherical Harmonics?: true
    Max angular momentum: 4

  Minimum eigenvalue in the overlap matrix is 4.1152219539E-01.
  Reciprocal condition number of the overlap matrix is 2.5412853789E-01.
    Using symmetric orthogonalization.

  ==> Pre-Iterations <==

  SCF Guess: Superposition of Atomic Densities via on-the-fly atomic UHF (no occupation information).

   -------------------------
    Irrep   Nso     Nmo    
   -------------------------
     A'         5       5 
     A"         1       1 
   -------------------------
    Total       6       6
   -------------------------

  ==> Iterations <==

                           Total Energy        Delta E     RMS |[F,P]|

   @DF-RHF iter SAD:   -98.10331507839879   -9.81033e+01   0.00000e+00 
   @DF-RHF iter   1:   -98.52558354985101   -4.22268e-01   4.16011e-02 DIIS
   @DF-RHF iter   2:   -98.56952351166956   -4.39400e-02   6.66472e-03 DIIS
   @DF-RHF iter   3:   -98.57060292802059   -1.07942e-03   8.47521e-04 DIIS
   @DF-RHF iter   4:   -98.57061445630828   -1.15283e-05   3.26747e-05 DIIS
   @DF-RHF iter   5:   -98.57061448110142   -2.47931e-08   1.26289e-06 DIIS
   @DF-RHF iter   6:   -98.57061448113880   -3.73888e-11   9.52966e-09 DIIS
  Energy and wave function converged.


  ==> Post-Iterations <==

    Orbital Energies [Eh]
    ---------------------

    Doubly Occupied:                                                      

       1Ap   -25.900064     2Ap    -1.471922     3Ap    -0.585826  
       1App   -0.464231     4Ap    -0.464231  

    Virtual:                                                              

       5Ap     0.631430  

    Final Occupation by Irrep:
             Ap   App 
    DOCC [     4,    1 ]

  @DF-RHF Final Energy:   -98.57061448113880

   => Energetics <=

    Nuclear Repulsion Energy =              5.2063868625139929
    One-Electron Energy =                -149.7814558130113767
    Two-Electron Energy =                  46.0044544693585635
    Total Energy =                        -98.5706144811388185

Computation Completed


Properties will be evaluated at   0.000000,   0.000000,   0.000000 [a0]

Properties computed using the SCF density matrix

  Nuclear Dipole Moment: [e a0]
     X:     0.9727      Y:    -1.4290      Z:     0.0000

  Electronic Dipole Moment: [e a0]
     X:    -0.6870      Y:     1.0093      Z:     0.0000

  Dipole Moment: [e a0]
     X:     0.2857      Y:    -0.4197      Z:     0.0000     Total:     0.5077

  Dipole Moment: [D]
     X:     0.7261      Y:    -1.0667      Z:     0.0000     Total:     1.2904


*** tstop() called on Swift-SF514-54GT at Mon Jan  3 15:21:50 2022
Module time:
	user time   =       0.15 seconds =       0.00 minutes
	system time =       0.00 seconds =       0.00 minutes
	total time  =          0 seconds =       0.00 minutes
Total time:
	user time   =       0.15 seconds =       0.00 minutes
	system time =       0.00 seconds =       0.00 minutes
	total time  =          0 seconds =       0.00 minutes

*** tstart() called on Swift-SF514-54GT
*** at Mon Jan  3 15:21:50 2022


         ------------------------------------------------------------
                                   SCF GRAD                          
                          Rob Parrish, Justin Turney,                
                       Andy Simmonett, and Alex Sokolov              
         ------------------------------------------------------------

  ==> Geometry <==

    Molecular point group: cs
    Full point group: C_inf_v

    Geometry (in Angstrom), charge = 0, multiplicity = 1:

       Center              X                  Y                   Z               Mass       
    ------------   -----------------  -----------------  -----------------  -----------------
         F            0.000000000000     0.000000000000     0.000000000000    18.998403162730
         H            0.514737740000    -0.756195130000     0.000000000000     1.007825032230

  Nuclear repulsion =    5.206386862513993

  ==> Basis Set <==

  Basis Set: STO-3G
    Blend: STO-3G
    Number of shells: 4
    Number of basis functions: 6
    Number of Cartesian functions: 6
    Spherical Harmonics?: true
    Max angular momentum: 1

  ==> DFJKGrad: Density-Fitted SCF Gradients <==

    Gradient:                    1
    J tasked:                  Yes
    K tasked:                  Yes
    wK tasked:                  No
    OpenMP threads:              1
    Integrals threads:           1
    Memory [MiB]:              375
    Schwarz Cutoff:          1E-12
    Fitting Condition:       1E-10

   => Auxiliary Basis Set <=

  Basis Set: (STO-3G AUX)
    Blend: DEF2-UNIVERSAL-JKFIT
    Number of shells: 31
    Number of basis functions: 95
    Number of Cartesian functions: 113
    Spherical Harmonics?: true
    Max angular momentum: 4


  -Total Gradient:
     Atom            X                  Y                   Z
    ------   -----------------  -----------------  -----------------
       1        0.035429287066    -0.052048746879     0.000000000000
       2       -0.035429287066     0.052048746879     0.000000000000


*** tstop() called on Swift-SF514-54GT at Mon Jan  3 15:21:50 2022
Module time:
	user time   =       0.01 seconds =       0.00 minutes
	system time =       0.00 seconds =       0.00 minutes
	total time  =          0 seconds =       0.00 minutes
Total time:
	user time   =       0.16 seconds =       0.00 minutes
	system time =       0.00 seconds =       0.00 minutes
	total time  =          0 seconds =       0.00 minutes

  Based on options and gradient (rms=3.64E-02), recommend projecting translations and not projecting rotations.
hessian() will perform analytic frequency computation.

*** tstart() called on Swift-SF514-54GT
*** at Mon Jan  3 15:21:50 2022

   => Loading Basis Set <=

    Name: STO-3G
    Role: ORBITAL
    Keyword: BASIS
    atoms 1 entry F          line    91 file /home/alenaizan/Downloads/temp/psi4/objdir/stage/share/psi4/basis/sto-3g.gbs 
    atoms 2 entry H          line    19 file /home/alenaizan/Downloads/temp/psi4/objdir/stage/share/psi4/basis/sto-3g.gbs 


         ---------------------------------------------------------
                                   SCF
               by Justin Turney, Rob Parrish, Andy Simmonett
                          and Daniel G. A. Smith
                              RHF Reference
                        1 Threads,    500 MiB Core
         ---------------------------------------------------------

  ==> Geometry <==

    Molecular point group: cs
    Full point group: C_inf_v

    Geometry (in Angstrom), charge = 0, multiplicity = 1:

       Center              X                  Y                   Z               Mass       
    ------------   -----------------  -----------------  -----------------  -----------------
         F            0.000000000000     0.000000000000     0.000000000000    18.998403162730
         H            0.514737740000    -0.756195130000     0.000000000000     1.007825032230

  Running in cs symmetry.

  Rotational constants: A = ************  B =     19.98927  C =     19.98927 [cm^-1]
  Rotational constants: A = ************  B = 599263.24905  C = 599263.24905 [MHz]
  Nuclear repulsion =    5.206386862513993

  Charge       = 0
  Multiplicity = 1
  Electrons    = 10
  Nalpha       = 5
  Nbeta        = 5

  ==> Algorithm <==

  SCF Algorithm Type is DF.
  DIIS enabled.
  MOM disabled.
  Fractional occupation disabled.
  Guess Type is SAD.
  Energy threshold   = 1.00e-08
  Density threshold  = 1.00e-08
  Integral threshold = 1.00e-12

  ==> Primary Basis <==

  Basis Set: STO-3G
    Blend: STO-3G
    Number of shells: 4
    Number of basis functions: 6
    Number of Cartesian functions: 6
    Spherical Harmonics?: true
    Max angular momentum: 1

   => Loading Basis Set <=

    Name: (STO-3G AUX)
    Role: JKFIT
    Keyword: DF_BASIS_SCF
    atoms 1 entry F          line   378 file /home/alenaizan/Downloads/temp/psi4/objdir/stage/share/psi4/basis/def2-universal-jkfit.gbs 
    atoms 2 entry H          line    18 file /home/alenaizan/Downloads/temp/psi4/objdir/stage/share/psi4/basis/def2-universal-jkfit.gbs 

  ==> Integral Setup <==

  DFHelper Memory: AOs need 0.000 GiB; user supplied 0.366 GiB. Using in-core AOs.

  ==> MemDFJK: Density-Fitted J/K Matrices <==

    J tasked:                   Yes
    K tasked:                   Yes
    wK tasked:                   No
    OpenMP threads:               1
    Memory [MiB]:               375
    Algorithm:                 Core
    Schwarz Cutoff:           1E-12
    Mask sparsity (%):       0.0000
    Fitting Condition:        1E-10

   => Auxiliary Basis Set <=

  Basis Set: (STO-3G AUX)
    Blend: DEF2-UNIVERSAL-JKFIT
    Number of shells: 31
    Number of basis functions: 95
    Number of Cartesian functions: 113
    Spherical Harmonics?: true
    Max angular momentum: 4

  Minimum eigenvalue in the overlap matrix is 4.1152219539E-01.
  Reciprocal condition number of the overlap matrix is 2.5412853789E-01.
    Using symmetric orthogonalization.

  ==> Pre-Iterations <==

  SCF Guess: Superposition of Atomic Densities via on-the-fly atomic UHF (no occupation information).

   -------------------------
    Irrep   Nso     Nmo    
   -------------------------
     A'         5       5 
     A"         1       1 
   -------------------------
    Total       6       6
   -------------------------

  ==> Iterations <==

                           Total Energy        Delta E     RMS |[F,P]|

   @DF-RHF iter SAD:   -98.10331507839879   -9.81033e+01   0.00000e+00 
   @DF-RHF iter   1:   -98.52558354985101   -4.22268e-01   4.16011e-02 DIIS
   @DF-RHF iter   2:   -98.56952351166956   -4.39400e-02   6.66472e-03 DIIS
   @DF-RHF iter   3:   -98.57060292802059   -1.07942e-03   8.47521e-04 DIIS
   @DF-RHF iter   4:   -98.57061445630828   -1.15283e-05   3.26747e-05 DIIS
   @DF-RHF iter   5:   -98.57061448110142   -2.47931e-08   1.26289e-06 DIIS
   @DF-RHF iter   6:   -98.57061448113880   -3.73888e-11   9.52966e-09 DIIS
  Energy and wave function converged.


  ==> Post-Iterations <==

    Orbital Energies [Eh]
    ---------------------

    Doubly Occupied:                                                      

       1Ap   -25.900064     2Ap    -1.471922     3Ap    -0.585826  
       1App   -0.464231     4Ap    -0.464231  

    Virtual:                                                              

       5Ap     0.631430  

    Final Occupation by Irrep:
             Ap   App 
    DOCC [     4,    1 ]

  @DF-RHF Final Energy:   -98.57061448113880

   => Energetics <=

    Nuclear Repulsion Energy =              5.2063868625139929
    One-Electron Energy =                -149.7814558130113767
    Two-Electron Energy =                  46.0044544693585635
    Total Energy =                        -98.5706144811388185

Computation Completed


Properties will be evaluated at   0.000000,   0.000000,   0.000000 [a0]

Properties computed using the SCF density matrix

  Nuclear Dipole Moment: [e a0]
     X:     0.9727      Y:    -1.4290      Z:     0.0000

  Electronic Dipole Moment: [e a0]
     X:    -0.6870      Y:     1.0093      Z:     0.0000

  Dipole Moment: [e a0]
     X:     0.2857      Y:    -0.4197      Z:     0.0000     Total:     0.5077

  Dipole Moment: [D]
     X:     0.7261      Y:    -1.0667      Z:     0.0000     Total:     1.2904


*** tstop() called on Swift-SF514-54GT at Mon Jan  3 15:21:50 2022
Module time:
	user time   =       0.12 seconds =       0.00 minutes
	system time =       0.00 seconds =       0.00 minutes
	total time  =          0 seconds =       0.00 minutes
Total time:
	user time   =       0.29 seconds =       0.00 minutes
	system time =       0.00 seconds =       0.00 minutes
	total time  =          0 seconds =       0.00 minutes

*** tstart() called on Swift-SF514-54GT
*** at Mon Jan  3 15:21:50 2022


         ------------------------------------------------------------
                                   SCF HESS                          
                          Rob Parrish, Justin Turney,                
                       Andy Simmonett, and Alex Sokolov              
         ------------------------------------------------------------

  ==> Geometry <==

    Molecular point group: cs
    Full point group: C_inf_v

    Geometry (in Angstrom), charge = 0, multiplicity = 1:

       Center              X                  Y                   Z               Mass       
    ------------   -----------------  -----------------  -----------------  -----------------
         F            0.000000000000     0.000000000000     0.000000000000    18.998403162730
         H            0.514737740000    -0.756195130000     0.000000000000     1.007825032230

  Nuclear repulsion =    5.206386862513993

  ==> Basis Set <==

  Basis Set: STO-3G
    Blend: STO-3G
    Number of shells: 4
    Number of basis functions: 6
    Number of Cartesian functions: 6
    Spherical Harmonics?: true
    Max angular momentum: 1

  ==> DFJKGrad: Density-Fitted SCF Gradients <==

    Gradient:                    2
    J tasked:                  Yes
    K tasked:                  Yes
    wK tasked:                  No
    OpenMP threads:              1
    Integrals threads:           1
    Memory [MiB]:              375
    Schwarz Cutoff:          1E-12
    Fitting Condition:       1E-10

   => Auxiliary Basis Set <=

  Basis Set: (STO-3G AUX)
    Blend: DEF2-UNIVERSAL-JKFIT
    Number of shells: 31
    Number of basis functions: 95
    Number of Cartesian functions: 113
    Spherical Harmonics?: true
    Max angular momentum: 4

  DFHelper Memory: AOs need 0.000 GiB; user supplied 0.439 GiB. Using in-core AOs.

  ==> MemDFJK: Density-Fitted J/K Matrices <==

    J tasked:                   Yes
    K tasked:                   Yes
    wK tasked:                   No
    OpenMP threads:               1
    Memory [MiB]:               450
    Algorithm:                 Core
    Schwarz Cutoff:           1E-12
    Mask sparsity (%):       0.0000
    Fitting Condition:        1E-10

   => Auxiliary Basis Set <=

  Basis Set: (STO-3G AUX)
    Blend: DEF2-UNIVERSAL-JKFIT
    Number of shells: 31
    Number of basis functions: 95
    Number of Cartesian functions: 113
    Spherical Harmonics?: true
    Max angular momentum: 4


   ==> Coupled-Perturbed RHF Solver <==

    Maxiter             =         100
    Convergence         =   1.000E-06
    Number of equations =           6
   -----------------------------------------------------
     Iter   Residual RMS      Max RMS  Remain  Time [s]
   -----------------------------------------------------
        1      3.681e-01    6.729e-01       4         0
        2      4.842e-02    8.120e-02       4         0
        3      7.939e-03    1.354e-02       4         0
        4      2.197e-15    1.676e-17       0         0
  ## Total Hessian (Symmetry 0) ##
  Irrep: 1 Size: 6 x 6

                 1                   2                   3                   4                   5

    1     0.26590263165732    -0.44414323639682     0.00000000000000    -0.26590263165661     0.44414323639635
    2    -0.44414323639682     0.61606242651166    -0.00000000000000     0.44414323639755    -0.61606242651108
    3     0.00000000000000    -0.00000000000000    -0.03642315261066    -0.00000000000000     0.00000000000000
    4    -0.26590263165661     0.44414323639755    -0.00000000000000     0.26590263165775    -0.44414323639772
    5     0.44414323639635    -0.61606242651108     0.00000000000000    -0.44414323639772     0.61606242650995
    6    -0.00000000000000     0.00000000000000     0.03642315261079     0.00000000000000    -0.00000000000000

                 6

    1    -0.00000000000000
    2     0.00000000000000
    3     0.03642315261079
    4     0.00000000000000
    5    -0.00000000000000
    6    -0.03642315261105




*** tstop() called on Swift-SF514-54GT at Mon Jan  3 15:21:50 2022
Module time:
	user time   =       0.10 seconds =       0.00 minutes
	system time =       0.02 seconds =       0.00 minutes
	total time  =          0 seconds =       0.00 minutes
Total time:
	user time   =       0.39 seconds =       0.01 minutes
	system time =       0.02 seconds =       0.00 minutes
	total time  =          0 seconds =       0.00 minutes

       N-Body: Complex Energy (fragments = (1,), basis = (1,):   -98.57061448113880)

       N-Body: Computing complex (2/2) with fragments (2,) in the basis of fragments (2,).


Scratch directory: /tmp/
gradient() will perform analytic gradient computation.

*** tstart() called on Swift-SF514-54GT
*** at Mon Jan  3 15:21:50 2022

   => Loading Basis Set <=

    Name: STO-3G
    Role: ORBITAL
    Keyword: BASIS
    atoms 1 entry F          line    91 file /home/alenaizan/Downloads/temp/psi4/objdir/stage/share/psi4/basis/sto-3g.gbs 
    atoms 2 entry H          line    19 file /home/alenaizan/Downloads/temp/psi4/objdir/stage/share/psi4/basis/sto-3g.gbs 


         ---------------------------------------------------------
                                   SCF
               by Justin Turney, Rob Parrish, Andy Simmonett
                          and Daniel G. A. Smith
                              RHF Reference
                        1 Threads,    500 MiB Core
         ---------------------------------------------------------

  ==> Geometry <==

    Molecular point group: cs
    Full point group: Cs

    Geometry (in Angstrom), charge = 0, multiplicity = 1:

       Center              X                  Y                   Z               Mass       
    ------------   -----------------  -----------------  -----------------  -----------------
         F            2.588764560000    -0.183867180000     0.000000000000    18.998403162730
         H            2.075364190000     0.573204170000     0.000000000000     1.007825032230

  Running in cs symmetry.

  Rotational constants: A =     33.42865  B =      0.12758  C =      0.12710 [cm^-1]
  Rotational constants: A = 1002165.71274  B =   3824.81550  C =   3810.27341 [MHz]
  Nuclear repulsion =    5.206539450728268

  Charge       = 0
  Multiplicity = 1
  Electrons    = 10
  Nalpha       = 5
  Nbeta        = 5

  ==> Algorithm <==

  SCF Algorithm Type is DF.
  DIIS enabled.
  MOM disabled.
  Fractional occupation disabled.
  Guess Type is SAD.
  Energy threshold   = 1.00e-08
  Density threshold  = 1.00e-08
  Integral threshold = 1.00e-12

  ==> Primary Basis <==

  Basis Set: STO-3G
    Blend: STO-3G
    Number of shells: 4
    Number of basis functions: 6
    Number of Cartesian functions: 6
    Spherical Harmonics?: true
    Max angular momentum: 1

   => Loading Basis Set <=

    Name: (STO-3G AUX)
    Role: JKFIT
    Keyword: DF_BASIS_SCF
    atoms 1 entry F          line   378 file /home/alenaizan/Downloads/temp/psi4/objdir/stage/share/psi4/basis/def2-universal-jkfit.gbs 
    atoms 2 entry H          line    18 file /home/alenaizan/Downloads/temp/psi4/objdir/stage/share/psi4/basis/def2-universal-jkfit.gbs 

  ==> Integral Setup <==

  DFHelper Memory: AOs need 0.000 GiB; user supplied 0.366 GiB. Using in-core AOs.

  ==> MemDFJK: Density-Fitted J/K Matrices <==

    J tasked:                   Yes
    K tasked:                   Yes
    wK tasked:                   No
    OpenMP threads:               1
    Memory [MiB]:               375
    Algorithm:                 Core
    Schwarz Cutoff:           1E-12
    Mask sparsity (%):       0.0000
    Fitting Condition:        1E-10

   => Auxiliary Basis Set <=

  Basis Set: (STO-3G AUX)
    Blend: DEF2-UNIVERSAL-JKFIT
    Number of shells: 31
    Number of basis functions: 95
    Number of Cartesian functions: 113
    Spherical Harmonics?: true
    Max angular momentum: 4

  Minimum eigenvalue in the overlap matrix is 4.1150358851E-01.
  Reciprocal condition number of the overlap matrix is 2.5411395288E-01.
    Using symmetric orthogonalization.

  ==> Pre-Iterations <==

  SCF Guess: Superposition of Atomic Densities via on-the-fly atomic UHF (no occupation information).

   -------------------------
    Irrep   Nso     Nmo    
   -------------------------
     A'         5       5 
     A"         1       1 
   -------------------------
    Total       6       6
   -------------------------

  ==> Iterations <==

                           Total Energy        Delta E     RMS |[F,P]|

   @DF-RHF iter SAD:   -98.10335302017326   -9.81034e+01   0.00000e+00 
   @DF-RHF iter   1:   -98.52558350172349   -4.22230e-01   4.16002e-02 DIIS
   @DF-RHF iter   2:   -98.56952025682673   -4.39368e-02   6.66495e-03 DIIS
   @DF-RHF iter   3:   -98.57059973728667   -1.07948e-03   8.47517e-04 DIIS
   @DF-RHF iter   4:   -98.57061126535308   -1.15281e-05   3.26756e-05 DIIS
   @DF-RHF iter   5:   -98.57061129014717   -2.47941e-08   1.26291e-06 DIIS
   @DF-RHF iter   6:   -98.57061129018437   -3.72040e-11   9.52984e-09 DIIS
  Energy and wave function converged.


  ==> Post-Iterations <==

    Orbital Energies [Eh]
    ---------------------

    Doubly Occupied:                                                      

       1Ap   -25.900062     2Ap    -1.471931     3Ap    -0.585833  
       1App   -0.464232     4Ap    -0.464232  

    Virtual:                                                              

       5Ap     0.631458  

    Final Occupation by Irrep:
             Ap   App 
    DOCC [     4,    1 ]

  @DF-RHF Final Energy:   -98.57061129018437

   => Energetics <=

    Nuclear Repulsion Energy =              5.2065394507282683
    One-Electron Energy =                -149.7817228111122745
    Two-Electron Energy =                  46.0045720701996430
    Total Energy =                        -98.5706112901843738

Computation Completed


Properties will be evaluated at   0.000000,   0.000000,   0.000000 [a0]

Properties computed using the SCF density matrix

  Nuclear Dipole Moment: [e a0]
     X:    47.9504      Y:    -2.0439      Z:     0.0000

  Electronic Dipole Moment: [e a0]
     X:   -48.2353      Y:     2.4641      Z:     0.0000

  Dipole Moment: [e a0]
     X:    -0.2849      Y:     0.4202      Z:     0.0000     Total:     0.5077

  Dipole Moment: [D]
     X:    -0.7242      Y:     1.0680      Z:     0.0000     Total:     1.2904


*** tstop() called on Swift-SF514-54GT at Mon Jan  3 15:21:50 2022
Module time:
	user time   =       0.11 seconds =       0.00 minutes
	system time =       0.00 seconds =       0.00 minutes
	total time  =          0 seconds =       0.00 minutes
Total time:
	user time   =       0.50 seconds =       0.01 minutes
	system time =       0.02 seconds =       0.00 minutes
	total time  =          0 seconds =       0.00 minutes

*** tstart() called on Swift-SF514-54GT
*** at Mon Jan  3 15:21:50 2022


         ------------------------------------------------------------
                                   SCF GRAD                          
                          Rob Parrish, Justin Turney,                
                       Andy Simmonett, and Alex Sokolov              
         ------------------------------------------------------------

  ==> Geometry <==

    Molecular point group: cs
    Full point group: Cs

    Geometry (in Angstrom), charge = 0, multiplicity = 1:

       Center              X                  Y                   Z               Mass       
    ------------   -----------------  -----------------  -----------------  -----------------
         F            2.588764560000    -0.183867180000     0.000000000000    18.998403162730
         H            2.075364190000     0.573204170000     0.000000000000     1.007825032230

  Nuclear repulsion =    5.206539450728268

  ==> Basis Set <==

  Basis Set: STO-3G
    Blend: STO-3G
    Number of shells: 4
    Number of basis functions: 6
    Number of Cartesian functions: 6
    Spherical Harmonics?: true
    Max angular momentum: 1

  ==> DFJKGrad: Density-Fitted SCF Gradients <==

    Gradient:                    1
    J tasked:                  Yes
    K tasked:                  Yes
    wK tasked:                  No
    OpenMP threads:              1
    Integrals threads:           1
    Memory [MiB]:              375
    Schwarz Cutoff:          1E-12
    Fitting Condition:       1E-10

   => Auxiliary Basis Set <=

  Basis Set: (STO-3G AUX)
    Blend: DEF2-UNIVERSAL-JKFIT
    Number of shells: 31
    Number of basis functions: 95
    Number of Cartesian functions: 113
    Spherical Harmonics?: true
    Max angular momentum: 4


  -Total Gradient:
     Atom            X                  Y                   Z
    ------   -----------------  -----------------  -----------------
       1       -0.035364387355     0.052149094636     0.000000000000
       2        0.035364387362    -0.052149094637     0.000000000000


*** tstop() called on Swift-SF514-54GT at Mon Jan  3 15:21:50 2022
Module time:
	user time   =       0.01 seconds =       0.00 minutes
	system time =       0.00 seconds =       0.00 minutes
	total time  =          0 seconds =       0.00 minutes
Total time:
	user time   =       0.51 seconds =       0.01 minutes
	system time =       0.02 seconds =       0.00 minutes
	total time  =          0 seconds =       0.00 minutes

  Based on options and gradient (rms=3.64E-02), recommend projecting translations and not projecting rotations.
hessian() will perform analytic frequency computation.

*** tstart() called on Swift-SF514-54GT
*** at Mon Jan  3 15:21:50 2022

   => Loading Basis Set <=

    Name: STO-3G
    Role: ORBITAL
    Keyword: BASIS
    atoms 1 entry F          line    91 file /home/alenaizan/Downloads/temp/psi4/objdir/stage/share/psi4/basis/sto-3g.gbs 
    atoms 2 entry H          line    19 file /home/alenaizan/Downloads/temp/psi4/objdir/stage/share/psi4/basis/sto-3g.gbs 


         ---------------------------------------------------------
                                   SCF
               by Justin Turney, Rob Parrish, Andy Simmonett
                          and Daniel G. A. Smith
                              RHF Reference
                        1 Threads,    500 MiB Core
         ---------------------------------------------------------

  ==> Geometry <==

    Molecular point group: cs
    Full point group: Cs

    Geometry (in Angstrom), charge = 0, multiplicity = 1:

       Center              X                  Y                   Z               Mass       
    ------------   -----------------  -----------------  -----------------  -----------------
         F            2.588764560000    -0.183867180000     0.000000000000    18.998403162730
         H            2.075364190000     0.573204170000     0.000000000000     1.007825032230

  Running in cs symmetry.

  Rotational constants: A =     33.42865  B =      0.12758  C =      0.12710 [cm^-1]
  Rotational constants: A = 1002165.71274  B =   3824.81550  C =   3810.27341 [MHz]
  Nuclear repulsion =    5.206539450728268

  Charge       = 0
  Multiplicity = 1
  Electrons    = 10
  Nalpha       = 5
  Nbeta        = 5

  ==> Algorithm <==

  SCF Algorithm Type is DF.
  DIIS enabled.
  MOM disabled.
  Fractional occupation disabled.
  Guess Type is SAD.
  Energy threshold   = 1.00e-08
  Density threshold  = 1.00e-08
  Integral threshold = 1.00e-12

  ==> Primary Basis <==

  Basis Set: STO-3G
    Blend: STO-3G
    Number of shells: 4
    Number of basis functions: 6
    Number of Cartesian functions: 6
    Spherical Harmonics?: true
    Max angular momentum: 1

   => Loading Basis Set <=

    Name: (STO-3G AUX)
    Role: JKFIT
    Keyword: DF_BASIS_SCF
    atoms 1 entry F          line   378 file /home/alenaizan/Downloads/temp/psi4/objdir/stage/share/psi4/basis/def2-universal-jkfit.gbs 
    atoms 2 entry H          line    18 file /home/alenaizan/Downloads/temp/psi4/objdir/stage/share/psi4/basis/def2-universal-jkfit.gbs 

  ==> Integral Setup <==

  DFHelper Memory: AOs need 0.000 GiB; user supplied 0.366 GiB. Using in-core AOs.

  ==> MemDFJK: Density-Fitted J/K Matrices <==

    J tasked:                   Yes
    K tasked:                   Yes
    wK tasked:                   No
    OpenMP threads:               1
    Memory [MiB]:               375
    Algorithm:                 Core
    Schwarz Cutoff:           1E-12
    Mask sparsity (%):       0.0000
    Fitting Condition:        1E-10

   => Auxiliary Basis Set <=

  Basis Set: (STO-3G AUX)
    Blend: DEF2-UNIVERSAL-JKFIT
    Number of shells: 31
    Number of basis functions: 95
    Number of Cartesian functions: 113
    Spherical Harmonics?: true
    Max angular momentum: 4

  Minimum eigenvalue in the overlap matrix is 4.1150358851E-01.
  Reciprocal condition number of the overlap matrix is 2.5411395288E-01.
    Using symmetric orthogonalization.

  ==> Pre-Iterations <==

  SCF Guess: Superposition of Atomic Densities via on-the-fly atomic UHF (no occupation information).

   -------------------------
    Irrep   Nso     Nmo    
   -------------------------
     A'         5       5 
     A"         1       1 
   -------------------------
    Total       6       6
   -------------------------

  ==> Iterations <==

                           Total Energy        Delta E     RMS |[F,P]|

   @DF-RHF iter SAD:   -98.10335302017326   -9.81034e+01   0.00000e+00 
   @DF-RHF iter   1:   -98.52558350172349   -4.22230e-01   4.16002e-02 DIIS
   @DF-RHF iter   2:   -98.56952025682673   -4.39368e-02   6.66495e-03 DIIS
   @DF-RHF iter   3:   -98.57059973728667   -1.07948e-03   8.47517e-04 DIIS
   @DF-RHF iter   4:   -98.57061126535308   -1.15281e-05   3.26756e-05 DIIS
   @DF-RHF iter   5:   -98.57061129014717   -2.47941e-08   1.26291e-06 DIIS
   @DF-RHF iter   6:   -98.57061129018437   -3.72040e-11   9.52984e-09 DIIS
  Energy and wave function converged.


  ==> Post-Iterations <==

    Orbital Energies [Eh]
    ---------------------

    Doubly Occupied:                                                      

       1Ap   -25.900062     2Ap    -1.471931     3Ap    -0.585833  
       1App   -0.464232     4Ap    -0.464232  

    Virtual:                                                              

       5Ap     0.631458  

    Final Occupation by Irrep:
             Ap   App 
    DOCC [     4,    1 ]

  @DF-RHF Final Energy:   -98.57061129018437

   => Energetics <=

    Nuclear Repulsion Energy =              5.2065394507282683
    One-Electron Energy =                -149.7817228111122745
    Two-Electron Energy =                  46.0045720701996430
    Total Energy =                        -98.5706112901843738

Computation Completed


Properties will be evaluated at   0.000000,   0.000000,   0.000000 [a0]

Properties computed using the SCF density matrix

  Nuclear Dipole Moment: [e a0]
     X:    47.9504      Y:    -2.0439      Z:     0.0000

  Electronic Dipole Moment: [e a0]
     X:   -48.2353      Y:     2.4641      Z:     0.0000

  Dipole Moment: [e a0]
     X:    -0.2849      Y:     0.4202      Z:     0.0000     Total:     0.5077

  Dipole Moment: [D]
     X:    -0.7242      Y:     1.0680      Z:     0.0000     Total:     1.2904


*** tstop() called on Swift-SF514-54GT at Mon Jan  3 15:21:50 2022
Module time:
	user time   =       0.11 seconds =       0.00 minutes
	system time =       0.00 seconds =       0.00 minutes
	total time  =          0 seconds =       0.00 minutes
Total time:
	user time   =       0.62 seconds =       0.01 minutes
	system time =       0.02 seconds =       0.00 minutes
	total time  =          0 seconds =       0.00 minutes

*** tstart() called on Swift-SF514-54GT
*** at Mon Jan  3 15:21:50 2022


         ------------------------------------------------------------
                                   SCF HESS                          
                          Rob Parrish, Justin Turney,                
                       Andy Simmonett, and Alex Sokolov              
         ------------------------------------------------------------

  ==> Geometry <==

    Molecular point group: cs
    Full point group: Cs

    Geometry (in Angstrom), charge = 0, multiplicity = 1:

       Center              X                  Y                   Z               Mass       
    ------------   -----------------  -----------------  -----------------  -----------------
         F            2.588764560000    -0.183867180000     0.000000000000    18.998403162730
         H            2.075364190000     0.573204170000     0.000000000000     1.007825032230

  Nuclear repulsion =    5.206539450728268

  ==> Basis Set <==

  Basis Set: STO-3G
    Blend: STO-3G
    Number of shells: 4
    Number of basis functions: 6
    Number of Cartesian functions: 6
    Spherical Harmonics?: true
    Max angular momentum: 1

  ==> DFJKGrad: Density-Fitted SCF Gradients <==

    Gradient:                    2
    J tasked:                  Yes
    K tasked:                  Yes
    wK tasked:                  No
    OpenMP threads:              1
    Integrals threads:           1
    Memory [MiB]:              375
    Schwarz Cutoff:          1E-12
    Fitting Condition:       1E-10

   => Auxiliary Basis Set <=

  Basis Set: (STO-3G AUX)
    Blend: DEF2-UNIVERSAL-JKFIT
    Number of shells: 31
    Number of basis functions: 95
    Number of Cartesian functions: 113
    Spherical Harmonics?: true
    Max angular momentum: 4

  DFHelper Memory: AOs need 0.000 GiB; user supplied 0.439 GiB. Using in-core AOs.

  ==> MemDFJK: Density-Fitted J/K Matrices <==

    J tasked:                   Yes
    K tasked:                   Yes
    wK tasked:                   No
    OpenMP threads:               1
    Memory [MiB]:               450
    Algorithm:                 Core
    Schwarz Cutoff:           1E-12
    Mask sparsity (%):       0.0000
    Fitting Condition:        1E-10

   => Auxiliary Basis Set <=

  Basis Set: (STO-3G AUX)
    Blend: DEF2-UNIVERSAL-JKFIT
    Number of shells: 31
    Number of basis functions: 95
    Number of Cartesian functions: 113
    Spherical Harmonics?: true
    Max angular momentum: 4


   ==> Coupled-Perturbed RHF Solver <==

    Maxiter             =         100
    Convergence         =   1.000E-06
    Number of equations =           6
   -----------------------------------------------------
     Iter   Residual RMS      Max RMS  Remain  Time [s]
   -----------------------------------------------------
        1      3.678e-01    6.734e-01       4         0
        2      4.839e-02    8.123e-02       4         0
        3      7.936e-03    1.355e-02       4         0
        4      5.720e-16    3.165e-17       0         0
  ## Total Hessian (Symmetry 0) ##
  Irrep: 1 Size: 6 x 6

                 1                   2                   3                   4                   5

    1     0.26437680213628    -0.44360742280081     0.00000000000000    -0.26437680213716     0.44360742280186
    2    -0.44360742280081     0.61770201402091    -0.00000000000000     0.44360742279906    -0.61770201402613
    3     0.00000000000000    -0.00000000000000    -0.03645113832313    -0.00000000000000     0.00000000000000
    4    -0.26437680213716     0.44360742279906    -0.00000000000000     0.26437680213614    -0.44360742279992
    5     0.44360742280186    -0.61770201402613     0.00000000000000    -0.44360742279992     0.61770201402778
    6    -0.00000000000000     0.00000000000000     0.03645113832003     0.00000000000000    -0.00000000000000

                 6

    1    -0.00000000000000
    2     0.00000000000000
    3     0.03645113832003
    4     0.00000000000000
    5    -0.00000000000000
    6    -0.03645113831991




*** tstop() called on Swift-SF514-54GT at Mon Jan  3 15:21:51 2022
Module time:
	user time   =       0.10 seconds =       0.00 minutes
	system time =       0.02 seconds =       0.00 minutes
	total time  =          1 seconds =       0.02 minutes
Total time:
	user time   =       0.72 seconds =       0.01 minutes
	system time =       0.04 seconds =       0.00 minutes
	total time  =          1 seconds =       0.02 minutes

       N-Body: Complex Energy (fragments = (2,), basis = (2,):   -98.57061129018437)

   ==> N-Body: Now computing 2-body complexes <==


       N-Body: Computing complex (1/1) with fragments (1, 2) in the basis of fragments (1, 2).


Scratch directory: /tmp/
gradient() will perform analytic gradient computation.

*** tstart() called on Swift-SF514-54GT
*** at Mon Jan  3 15:21:51 2022

   => Loading Basis Set <=

    Name: STO-3G
    Role: ORBITAL
    Keyword: BASIS
    atoms 1, 3 entry F          line    91 file /home/alenaizan/Downloads/temp/psi4/objdir/stage/share/psi4/basis/sto-3g.gbs 
    atoms 2, 4 entry H          line    19 file /home/alenaizan/Downloads/temp/psi4/objdir/stage/share/psi4/basis/sto-3g.gbs 


         ---------------------------------------------------------
                                   SCF
               by Justin Turney, Rob Parrish, Andy Simmonett
                          and Daniel G. A. Smith
                              RHF Reference
                        1 Threads,    500 MiB Core
         ---------------------------------------------------------

  ==> Geometry <==

    Molecular point group: cs
    Full point group: Cs

    Geometry (in Angstrom), charge = 0, multiplicity = 1:

       Center              X                  Y                   Z               Mass       
    ------------   -----------------  -----------------  -----------------  -----------------
         F            0.000000000000     0.000000000000     0.000000000000    18.998403162730
         H            0.514737740000    -0.756195130000     0.000000000000     1.007825032230
         F            2.588764560000    -0.183867180000     0.000000000000    18.998403162730
         H            2.075364190000     0.573204170000     0.000000000000     1.007825032230

  Running in cs symmetry.

  Rotational constants: A =     16.34333  B =      0.12728  C =      0.12629 [cm^-1]
  Rotational constants: A = 489960.67023  B =   3815.68569  C =   3786.19975 [MHz]
  Nuclear repulsion =   31.612474949183834

  Charge       = 0
  Multiplicity = 1
  Electrons    = 20
  Nalpha       = 10
  Nbeta        = 10

  ==> Algorithm <==

  SCF Algorithm Type is DF.
  DIIS enabled.
  MOM disabled.
  Fractional occupation disabled.
  Guess Type is SAD.
  Energy threshold   = 1.00e-08
  Density threshold  = 1.00e-08
  Integral threshold = 1.00e-12

  ==> Primary Basis <==

  Basis Set: STO-3G
    Blend: STO-3G
    Number of shells: 8
    Number of basis functions: 12
    Number of Cartesian functions: 12
    Spherical Harmonics?: true
    Max angular momentum: 1

   => Loading Basis Set <=

    Name: (STO-3G AUX)
    Role: JKFIT
    Keyword: DF_BASIS_SCF
    atoms 1, 3 entry F          line   378 file /home/alenaizan/Downloads/temp/psi4/objdir/stage/share/psi4/basis/def2-universal-jkfit.gbs 
    atoms 2, 4 entry H          line    18 file /home/alenaizan/Downloads/temp/psi4/objdir/stage/share/psi4/basis/def2-universal-jkfit.gbs 

  ==> Integral Setup <==

  DFHelper Memory: AOs need 0.001 GiB; user supplied 0.366 GiB. Using in-core AOs.

  ==> MemDFJK: Density-Fitted J/K Matrices <==

    J tasked:                   Yes
    K tasked:                   Yes
    wK tasked:                   No
    OpenMP threads:               1
    Memory [MiB]:               375
    Algorithm:                 Core
    Schwarz Cutoff:           1E-12
    Mask sparsity (%):       1.3889
    Fitting Condition:        1E-10

   => Auxiliary Basis Set <=

  Basis Set: (STO-3G AUX)
    Blend: DEF2-UNIVERSAL-JKFIT
    Number of shells: 62
    Number of basis functions: 190
    Number of Cartesian functions: 226
    Spherical Harmonics?: true
    Max angular momentum: 4

  Minimum eigenvalue in the overlap matrix is 3.9657428017E-01.
  Reciprocal condition number of the overlap matrix is 2.3127446075E-01.
    Using symmetric orthogonalization.

  ==> Pre-Iterations <==

  SCF Guess: Superposition of Atomic Densities via on-the-fly atomic UHF (no occupation information).

   -------------------------
    Irrep   Nso     Nmo    
   -------------------------
     A'        10      10 
     A"         2       2 
   -------------------------
    Total      12      12
   -------------------------

  ==> Iterations <==

                           Total Energy        Delta E     RMS |[F,P]|

   @DF-RHF iter SAD:  -196.21747998433619   -1.96217e+02   0.00000e+00 
   @DF-RHF iter   1:  -197.06395044902877   -8.46470e-01   2.76620e-02 DIIS
   @DF-RHF iter   2:  -197.14152656330890   -7.75761e-02   5.10229e-03 DIIS
   @DF-RHF iter   3:  -197.14424622846312   -2.71967e-03   6.51467e-04 DIIS
   @DF-RHF iter   4:  -197.14428287190492   -3.66434e-05   2.64655e-05 DIIS
   @DF-RHF iter   5:  -197.14428295233839   -8.04335e-08   5.10798e-06 DIIS
   @DF-RHF iter   6:  -197.14428295680401   -4.46562e-09   1.21812e-06 DIIS
   @DF-RHF iter   7:  -197.14428295705230   -2.48292e-10   1.63722e-07 DIIS
   @DF-RHF iter   8:  -197.14428295705497   -2.67164e-12   5.04622e-09 DIIS
  Energy and wave function converged.


  ==> Post-Iterations <==

    Orbital Energies [Eh]
    ---------------------

    Doubly Occupied:                                                      

       1Ap   -25.903940     2Ap   -25.903736     3Ap    -1.488178  
       4Ap    -1.473619     5Ap    -0.601899     6Ap    -0.593460  
       7Ap    -0.475748     1App   -0.473106     2App   -0.470841  
       8Ap    -0.463207  

    Virtual:                                                              

       9Ap     0.606838    10Ap     0.665984  

    Final Occupation by Irrep:
             Ap   App 
    DOCC [     8,    2 ]

  @DF-RHF Final Energy:  -197.14428295705497

   => Energetics <=

    Nuclear Repulsion Energy =             31.6124749491838344
    One-Electron Energy =                -341.8180474538600038
    Two-Electron Energy =                 113.0612895476212145
    Total Energy =                       -197.1442829570549691

Computation Completed


Properties will be evaluated at   0.000000,   0.000000,   0.000000 [a0]

Properties computed using the SCF density matrix

  Nuclear Dipole Moment: [e a0]
     X:    48.9231      Y:    -3.4729      Z:     0.0000

  Electronic Dipole Moment: [e a0]
     X:   -48.9222      Y:     3.4735      Z:     0.0000

  Dipole Moment: [e a0]
     X:     0.0009      Y:     0.0005      Z:     0.0000     Total:     0.0011

  Dipole Moment: [D]
     X:     0.0024      Y:     0.0013      Z:     0.0000     Total:     0.0027


*** tstop() called on Swift-SF514-54GT at Mon Jan  3 15:21:51 2022
Module time:
	user time   =       0.19 seconds =       0.00 minutes
	system time =       0.00 seconds =       0.00 minutes
	total time  =          0 seconds =       0.00 minutes
Total time:
	user time   =       0.92 seconds =       0.02 minutes
	system time =       0.04 seconds =       0.00 minutes
	total time  =          1 seconds =       0.02 minutes

*** tstart() called on Swift-SF514-54GT
*** at Mon Jan  3 15:21:51 2022


         ------------------------------------------------------------
                                   SCF GRAD                          
                          Rob Parrish, Justin Turney,                
                       Andy Simmonett, and Alex Sokolov              
         ------------------------------------------------------------

  ==> Geometry <==

    Molecular point group: cs
    Full point group: Cs

    Geometry (in Angstrom), charge = 0, multiplicity = 1:

       Center              X                  Y                   Z               Mass       
    ------------   -----------------  -----------------  -----------------  -----------------
         F            0.000000000000     0.000000000000     0.000000000000    18.998403162730
         H            0.514737740000    -0.756195130000     0.000000000000     1.007825032230
         F            2.588764560000    -0.183867180000     0.000000000000    18.998403162730
         H            2.075364190000     0.573204170000     0.000000000000     1.007825032230

  Nuclear repulsion =   31.612474949183834

  ==> Basis Set <==

  Basis Set: STO-3G
    Blend: STO-3G
    Number of shells: 8
    Number of basis functions: 12
    Number of Cartesian functions: 12
    Spherical Harmonics?: true
    Max angular momentum: 1

  ==> DFJKGrad: Density-Fitted SCF Gradients <==

    Gradient:                    1
    J tasked:                  Yes
    K tasked:                  Yes
    wK tasked:                  No
    OpenMP threads:              1
    Integrals threads:           1
    Memory [MiB]:              375
    Schwarz Cutoff:          1E-12
    Fitting Condition:       1E-10

   => Auxiliary Basis Set <=

  Basis Set: (STO-3G AUX)
    Blend: DEF2-UNIVERSAL-JKFIT
    Number of shells: 62
    Number of basis functions: 190
    Number of Cartesian functions: 226
    Spherical Harmonics?: true
    Max angular momentum: 4


  -Total Gradient:
     Atom            X                  Y                   Z
    ------   -----------------  -----------------  -----------------
       1        0.032493903989    -0.050353750342     0.000000000000
       2       -0.032788614834     0.051840623982     0.000000000000
       3       -0.032415035717     0.050458658048     0.000000000000
       4        0.032709746570    -0.051945531688     0.000000000000


*** tstop() called on Swift-SF514-54GT at Mon Jan  3 15:21:51 2022
Module time:
	user time   =       0.02 seconds =       0.00 minutes
	system time =       0.00 seconds =       0.00 minutes
	total time  =          0 seconds =       0.00 minutes
Total time:
	user time   =       0.94 seconds =       0.02 minutes
	system time =       0.04 seconds =       0.00 minutes
	total time  =          1 seconds =       0.02 minutes

  Based on options and gradient (rms=3.50E-02), recommend projecting translations and not projecting rotations.
hessian() will perform analytic frequency computation.

*** tstart() called on Swift-SF514-54GT
*** at Mon Jan  3 15:21:51 2022

   => Loading Basis Set <=

    Name: STO-3G
    Role: ORBITAL
    Keyword: BASIS
    atoms 1, 3 entry F          line    91 file /home/alenaizan/Downloads/temp/psi4/objdir/stage/share/psi4/basis/sto-3g.gbs 
    atoms 2, 4 entry H          line    19 file /home/alenaizan/Downloads/temp/psi4/objdir/stage/share/psi4/basis/sto-3g.gbs 


         ---------------------------------------------------------
                                   SCF
               by Justin Turney, Rob Parrish, Andy Simmonett
                          and Daniel G. A. Smith
                              RHF Reference
                        1 Threads,    500 MiB Core
         ---------------------------------------------------------

  ==> Geometry <==

    Molecular point group: cs
    Full point group: Cs

    Geometry (in Angstrom), charge = 0, multiplicity = 1:

       Center              X                  Y                   Z               Mass       
    ------------   -----------------  -----------------  -----------------  -----------------
         F            0.000000000000     0.000000000000     0.000000000000    18.998403162730
         H            0.514737740000    -0.756195130000     0.000000000000     1.007825032230
         F            2.588764560000    -0.183867180000     0.000000000000    18.998403162730
         H            2.075364190000     0.573204170000     0.000000000000     1.007825032230

  Running in cs symmetry.

  Rotational constants: A =     16.34333  B =      0.12728  C =      0.12629 [cm^-1]
  Rotational constants: A = 489960.67023  B =   3815.68569  C =   3786.19975 [MHz]
  Nuclear repulsion =   31.612474949183834

  Charge       = 0
  Multiplicity = 1
  Electrons    = 20
  Nalpha       = 10
  Nbeta        = 10

  ==> Algorithm <==

  SCF Algorithm Type is DF.
  DIIS enabled.
  MOM disabled.
  Fractional occupation disabled.
  Guess Type is SAD.
  Energy threshold   = 1.00e-08
  Density threshold  = 1.00e-08
  Integral threshold = 1.00e-12

  ==> Primary Basis <==

  Basis Set: STO-3G
    Blend: STO-3G
    Number of shells: 8
    Number of basis functions: 12
    Number of Cartesian functions: 12
    Spherical Harmonics?: true
    Max angular momentum: 1

   => Loading Basis Set <=

    Name: (STO-3G AUX)
    Role: JKFIT
    Keyword: DF_BASIS_SCF
    atoms 1, 3 entry F          line   378 file /home/alenaizan/Downloads/temp/psi4/objdir/stage/share/psi4/basis/def2-universal-jkfit.gbs 
    atoms 2, 4 entry H          line    18 file /home/alenaizan/Downloads/temp/psi4/objdir/stage/share/psi4/basis/def2-universal-jkfit.gbs 

  ==> Integral Setup <==

  DFHelper Memory: AOs need 0.001 GiB; user supplied 0.366 GiB. Using in-core AOs.

  ==> MemDFJK: Density-Fitted J/K Matrices <==

    J tasked:                   Yes
    K tasked:                   Yes
    wK tasked:                   No
    OpenMP threads:               1
    Memory [MiB]:               375
    Algorithm:                 Core
    Schwarz Cutoff:           1E-12
    Mask sparsity (%):       1.3889
    Fitting Condition:        1E-10

   => Auxiliary Basis Set <=

  Basis Set: (STO-3G AUX)
    Blend: DEF2-UNIVERSAL-JKFIT
    Number of shells: 62
    Number of basis functions: 190
    Number of Cartesian functions: 226
    Spherical Harmonics?: true
    Max angular momentum: 4

  Minimum eigenvalue in the overlap matrix is 3.9657428017E-01.
  Reciprocal condition number of the overlap matrix is 2.3127446075E-01.
    Using symmetric orthogonalization.

  ==> Pre-Iterations <==

  SCF Guess: Superposition of Atomic Densities via on-the-fly atomic UHF (no occupation information).

   -------------------------
    Irrep   Nso     Nmo    
   -------------------------
     A'        10      10 
     A"         2       2 
   -------------------------
    Total      12      12
   -------------------------

  ==> Iterations <==

                           Total Energy        Delta E     RMS |[F,P]|

   @DF-RHF iter SAD:  -196.21747998433619   -1.96217e+02   0.00000e+00 
   @DF-RHF iter   1:  -197.06395044902877   -8.46470e-01   2.76620e-02 DIIS
   @DF-RHF iter   2:  -197.14152656330890   -7.75761e-02   5.10229e-03 DIIS
   @DF-RHF iter   3:  -197.14424622846312   -2.71967e-03   6.51467e-04 DIIS
   @DF-RHF iter   4:  -197.14428287190492   -3.66434e-05   2.64655e-05 DIIS
   @DF-RHF iter   5:  -197.14428295233839   -8.04335e-08   5.10798e-06 DIIS
   @DF-RHF iter   6:  -197.14428295680401   -4.46562e-09   1.21812e-06 DIIS
   @DF-RHF iter   7:  -197.14428295705230   -2.48292e-10   1.63722e-07 DIIS
   @DF-RHF iter   8:  -197.14428295705497   -2.67164e-12   5.04622e-09 DIIS
  Energy and wave function converged.


  ==> Post-Iterations <==

    Orbital Energies [Eh]
    ---------------------

    Doubly Occupied:                                                      

       1Ap   -25.903940     2Ap   -25.903736     3Ap    -1.488178  
       4Ap    -1.473619     5Ap    -0.601899     6Ap    -0.593460  
       7Ap    -0.475748     1App   -0.473106     2App   -0.470841  
       8Ap    -0.463207  

    Virtual:                                                              

       9Ap     0.606838    10Ap     0.665984  

    Final Occupation by Irrep:
             Ap   App 
    DOCC [     8,    2 ]

  @DF-RHF Final Energy:  -197.14428295705497

   => Energetics <=

    Nuclear Repulsion Energy =             31.6124749491838344
    One-Electron Energy =                -341.8180474538600038
    Two-Electron Energy =                 113.0612895476212145
    Total Energy =                       -197.1442829570549691

Computation Completed


Properties will be evaluated at   0.000000,   0.000000,   0.000000 [a0]

Properties computed using the SCF density matrix

  Nuclear Dipole Moment: [e a0]
     X:    48.9231      Y:    -3.4729      Z:     0.0000

  Electronic Dipole Moment: [e a0]
     X:   -48.9222      Y:     3.4735      Z:     0.0000

  Dipole Moment: [e a0]
     X:     0.0009      Y:     0.0005      Z:     0.0000     Total:     0.0011

  Dipole Moment: [D]
     X:     0.0024      Y:     0.0013      Z:     0.0000     Total:     0.0027


*** tstop() called on Swift-SF514-54GT at Mon Jan  3 15:21:51 2022
Module time:
	user time   =       0.17 seconds =       0.00 minutes
	system time =       0.00 seconds =       0.00 minutes
	total time  =          0 seconds =       0.00 minutes
Total time:
	user time   =       1.12 seconds =       0.02 minutes
	system time =       0.04 seconds =       0.00 minutes
	total time  =          1 seconds =       0.02 minutes

*** tstart() called on Swift-SF514-54GT
*** at Mon Jan  3 15:21:51 2022


         ------------------------------------------------------------
                                   SCF HESS                          
                          Rob Parrish, Justin Turney,                
                       Andy Simmonett, and Alex Sokolov              
         ------------------------------------------------------------

  ==> Geometry <==

    Molecular point group: cs
    Full point group: Cs

    Geometry (in Angstrom), charge = 0, multiplicity = 1:

       Center              X                  Y                   Z               Mass       
    ------------   -----------------  -----------------  -----------------  -----------------
         F            0.000000000000     0.000000000000     0.000000000000    18.998403162730
         H            0.514737740000    -0.756195130000     0.000000000000     1.007825032230
         F            2.588764560000    -0.183867180000     0.000000000000    18.998403162730
         H            2.075364190000     0.573204170000     0.000000000000     1.007825032230

  Nuclear repulsion =   31.612474949183834

  ==> Basis Set <==

  Basis Set: STO-3G
    Blend: STO-3G
    Number of shells: 8
    Number of basis functions: 12
    Number of Cartesian functions: 12
    Spherical Harmonics?: true
    Max angular momentum: 1

  ==> DFJKGrad: Density-Fitted SCF Gradients <==

    Gradient:                    2
    J tasked:                  Yes
    K tasked:                  Yes
    wK tasked:                  No
    OpenMP threads:              1
    Integrals threads:           1
    Memory [MiB]:              375
    Schwarz Cutoff:          1E-12
    Fitting Condition:       1E-10

   => Auxiliary Basis Set <=

  Basis Set: (STO-3G AUX)
    Blend: DEF2-UNIVERSAL-JKFIT
    Number of shells: 62
    Number of basis functions: 190
    Number of Cartesian functions: 226
    Spherical Harmonics?: true
    Max angular momentum: 4

  DFHelper Memory: AOs need 0.001 GiB; user supplied 0.439 GiB. Using in-core AOs.

  ==> MemDFJK: Density-Fitted J/K Matrices <==

    J tasked:                   Yes
    K tasked:                   Yes
    wK tasked:                   No
    OpenMP threads:               1
    Memory [MiB]:               450
    Algorithm:                 Core
    Schwarz Cutoff:           1E-12
    Mask sparsity (%):       1.3889
    Fitting Condition:        1E-10

   => Auxiliary Basis Set <=

  Basis Set: (STO-3G AUX)
    Blend: DEF2-UNIVERSAL-JKFIT
    Number of shells: 62
    Number of basis functions: 190
    Number of Cartesian functions: 226
    Spherical Harmonics?: true
    Max angular momentum: 4


   ==> Coupled-Perturbed RHF Solver <==

    Maxiter             =         100
    Convergence         =   1.000E-06
    Number of equations =          12
   -----------------------------------------------------
     Iter   Residual RMS      Max RMS  Remain  Time [s]
   -----------------------------------------------------
        1      3.746e-01    6.350e-01      12         0
        2      5.197e-02    9.422e-02      12         0
        3      5.043e-03    8.020e-03      10         0
        4      3.938e-04    7.129e-04       8         0
        5      1.352e-04    2.170e-04       8         0
        6      2.040e-05    3.617e-05       8         0
        7      7.452e-07    1.084e-06       6         0
        8      2.835e-07    1.544e-07       0         0
  ## Total Hessian (Symmetry 0) ##
  Irrep: 1 Size: 12 x 12

                 1                   2                   3                   4                   5

    1     0.26810792651531    -0.44102976745435     0.00000000000000    -0.26410036457124     0.43814650705720
    2    -0.44102976745435     0.61509029784749    -0.00000000000000     0.44418614821831    -0.61469260498057
    3     0.00000000000000    -0.00000000000000    -0.03267463297706    -0.00000000000000     0.00000000000000
    4    -0.26410036457124     0.44418614821831    -0.00000000000000     0.26819409072015    -0.43985948679168
    5     0.43814650705720    -0.61469260498057     0.00000000000000    -0.43985948679168     0.61816192231301
    6    -0.00000000000000     0.00000000000000     0.03305553543822     0.00000000000000    -0.00000000000000
    7    -0.00767346883366    -0.00321772232859     0.00000000000000     0.00366987689616     0.00611202996999
    8    -0.00320350296136    -0.00163368470321    -0.00000000000000     0.00005226883697     0.00123117309632
    9     0.00000000000000     0.00000000000000     0.00189055793310    -0.00000000000000    -0.00000000000000
   10     0.00366590689954     0.00006134157389    -0.00000000000000    -0.00776360303239    -0.00439905024370
   11     0.00608676335977     0.00123599183792    -0.00000000000000    -0.00437893026645    -0.00470049041901
   12    -0.00000000000000    -0.00000000000000    -0.00227146039422     0.00000000000000     0.00000000000000

                 6                   7                   8                   9                  10

    1    -0.00000000000000    -0.00767346883366    -0.00320350296136     0.00000000000000     0.00366590689954
    2     0.00000000000000    -0.00321772232859    -0.00163368470321     0.00000000000000     0.00006134157389
    3     0.03305553543822     0.00000000000000    -0.00000000000000     0.00189055793310    -0.00000000000000
    4     0.00000000000000     0.00366987689616     0.00005226883697    -0.00000000000000    -0.00776360303239
    5    -0.00000000000000     0.00611202996999     0.00123117309632    -0.00000000000000    -0.00439905024370
    6    -0.03359010688204    -0.00000000000000     0.00000000000000    -0.00227955112705     0.00000000000000
    7    -0.00000000000000     0.26659576793184    -0.44050067037987    -0.00000000000000    -0.26259217604177
    8     0.00000000000000    -0.44050067037987     0.61674054693297     0.00000000000000     0.44365190452938
    9    -0.00227955112705    -0.00000000000000     0.00000000000000    -0.03269812533084     0.00000000000000
   10     0.00000000000000    -0.26259217604177     0.44365190452938     0.00000000000000     0.26668987219599
   11     0.00000000000000     0.43760636274574    -0.61633803533004    -0.00000000000000    -0.43931419585882
   12     0.00281412257225     0.00000000000000    -0.00000000000000     0.03308711852286    -0.00000000000000

                11                  12

    1     0.00608676335977    -0.00000000000000
    2     0.00123599183792    -0.00000000000000
    3    -0.00000000000000    -0.00227146039422
    4    -0.00437893026645     0.00000000000000
    5    -0.00470049041901     0.00000000000000
    6     0.00000000000000     0.00281412257225
    7     0.43760636274574     0.00000000000000
    8    -0.61633803533004    -0.00000000000000
    9    -0.00000000000000     0.03308711852286
   10    -0.43931419585882    -0.00000000000000
   11     0.61980253392077     0.00000000000000
   12     0.00000000000000    -0.03362978070196




*** tstop() called on Swift-SF514-54GT at Mon Jan  3 15:21:51 2022
Module time:
	user time   =       0.27 seconds =       0.00 minutes
	system time =       0.04 seconds =       0.00 minutes
	total time  =          0 seconds =       0.00 minutes
Total time:
	user time   =       1.40 seconds =       0.02 minutes
	system time =       0.08 seconds =       0.00 minutes
	total time  =          1 seconds =       0.02 minutes

       N-Body: Complex Energy (fragments = (1, 2), basis = (1, 2):  -197.14428295705497)

   ==> N-Body: Non-Counterpoise Corrected (NoCP) energies <==

   n-Body     Total Energy [Eh]       I.E. [kcal/mol]      Delta [kcal/mol]
        1     -197.141225771323        0.000000000000        0.000000000000
        2     -197.144282957055       -1.918413009796       -1.918413009796

   => Loading Basis Set <=

    Name: DEF2-SVP
    Role: ORBITAL
    Keyword: BASIS
    atoms 1, 3 entry F          line   150 file /home/alenaizan/Downloads/temp/psi4/objdir/stage/share/psi4/basis/def2-svp.gbs 
    atoms 2, 4 entry H          line    15 file /home/alenaizan/Downloads/temp/psi4/objdir/stage/share/psi4/basis/def2-svp.gbs 


   ==> N-Body: Non-Counterpoise Corrected (NoCP) energies <==

   n-Body     Total Energy [Eh]       I.E. [kcal/mol]      Delta [kcal/mol]
        1     -197.141225771323        0.000000000000        0.000000000000
        2     -197.144282957055       -1.918413009796       -1.918413009796



   ===> N-Body Interaction Abacus <===
        BSSE Treatment:                     nocp
        Number of 1-body computations:     2
        Number of 2-body computations:     1

   ==> N-Body: Now computing 1-body complexes <==


       N-Body: Computing complex (1/2) with fragments (1,) in the basis of fragments (1,).


Scratch directory: /tmp/
gradient() will perform analytic gradient computation.

*** tstart() called on Swift-SF514-54GT
*** at Mon Jan  3 15:21:51 2022

   => Loading Basis Set <=

    Name: STO-3G
    Role: ORBITAL
    Keyword: BASIS
    atoms 1 entry F          line    91 file /home/alenaizan/Downloads/temp/psi4/objdir/stage/share/psi4/basis/sto-3g.gbs 
    atoms 2 entry H          line    19 file /home/alenaizan/Downloads/temp/psi4/objdir/stage/share/psi4/basis/sto-3g.gbs 


         ---------------------------------------------------------
                                   SCF
               by Justin Turney, Rob Parrish, Andy Simmonett
                          and Daniel G. A. Smith
                              RHF Reference
                        1 Threads,    500 MiB Core
         ---------------------------------------------------------

  ==> Geometry <==

    Molecular point group: cs
    Full point group: C_inf_v

    Geometry (in Angstrom), charge = 0, multiplicity = 1:

       Center              X                  Y                   Z               Mass       
    ------------   -----------------  -----------------  -----------------  -----------------
         F            0.000000000000     0.000000000000     0.000000000000    18.998403162730
         H            0.514737740000    -0.756195130000     0.000000000000     1.007825032230

  Running in cs symmetry.

  Rotational constants: A = ************  B =     19.98927  C =     19.98927 [cm^-1]
  Rotational constants: A = ************  B = 599263.24905  C = 599263.24905 [MHz]
  Nuclear repulsion =    5.206386862513993

  Charge       = 0
  Multiplicity = 1
  Electrons    = 10
  Nalpha       = 5
  Nbeta        = 5

  ==> Algorithm <==

  SCF Algorithm Type is DF.
  DIIS enabled.
  MOM disabled.
  Fractional occupation disabled.
  Guess Type is SAD.
  Energy threshold   = 1.00e-08
  Density threshold  = 1.00e-08
  Integral threshold = 1.00e-12

  ==> Primary Basis <==

  Basis Set: STO-3G
    Blend: STO-3G
    Number of shells: 4
    Number of basis functions: 6
    Number of Cartesian functions: 6
    Spherical Harmonics?: true
    Max angular momentum: 1

   => Loading Basis Set <=

    Name: (STO-3G AUX)
    Role: JKFIT
    Keyword: DF_BASIS_SCF
    atoms 1 entry F          line   378 file /home/alenaizan/Downloads/temp/psi4/objdir/stage/share/psi4/basis/def2-universal-jkfit.gbs 
    atoms 2 entry H          line    18 file /home/alenaizan/Downloads/temp/psi4/objdir/stage/share/psi4/basis/def2-universal-jkfit.gbs 

  ==> Integral Setup <==

  DFHelper Memory: AOs need 0.000 GiB; user supplied 0.366 GiB. Using in-core AOs.

  ==> MemDFJK: Density-Fitted J/K Matrices <==

    J tasked:                   Yes
    K tasked:                   Yes
    wK tasked:                   No
    OpenMP threads:               1
    Memory [MiB]:               375
    Algorithm:                 Core
    Schwarz Cutoff:           1E-12
    Mask sparsity (%):       0.0000
    Fitting Condition:        1E-10

   => Auxiliary Basis Set <=

  Basis Set: (STO-3G AUX)
    Blend: DEF2-UNIVERSAL-JKFIT
    Number of shells: 31
    Number of basis functions: 95
    Number of Cartesian functions: 113
    Spherical Harmonics?: true
    Max angular momentum: 4

  Minimum eigenvalue in the overlap matrix is 4.1152219539E-01.
  Reciprocal condition number of the overlap matrix is 2.5412853789E-01.
    Using symmetric orthogonalization.

  ==> Pre-Iterations <==

  SCF Guess: Superposition of Atomic Densities via on-the-fly atomic UHF (no occupation information).

   -------------------------
    Irrep   Nso     Nmo    
   -------------------------
     A'         5       5 
     A"         1       1 
   -------------------------
    Total       6       6
   -------------------------

  ==> Iterations <==

                           Total Energy        Delta E     RMS |[F,P]|

   @DF-RHF iter SAD:   -98.10331507839879   -9.81033e+01   0.00000e+00 
   @DF-RHF iter   1:   -98.52558354985101   -4.22268e-01   4.16011e-02 DIIS
   @DF-RHF iter   2:   -98.56952351166956   -4.39400e-02   6.66472e-03 DIIS
   @DF-RHF iter   3:   -98.57060292802059   -1.07942e-03   8.47521e-04 DIIS
   @DF-RHF iter   4:   -98.57061445630828   -1.15283e-05   3.26747e-05 DIIS
   @DF-RHF iter   5:   -98.57061448110142   -2.47931e-08   1.26289e-06 DIIS
   @DF-RHF iter   6:   -98.57061448113880   -3.73888e-11   9.52966e-09 DIIS
  Energy and wave function converged.


  ==> Post-Iterations <==

    Orbital Energies [Eh]
    ---------------------

    Doubly Occupied:                                                      

       1Ap   -25.900064     2Ap    -1.471922     3Ap    -0.585826  
       1App   -0.464231     4Ap    -0.464231  

    Virtual:                                                              

       5Ap     0.631430  

    Final Occupation by Irrep:
             Ap   App 
    DOCC [     4,    1 ]

  @DF-RHF Final Energy:   -98.57061448113880

   => Energetics <=

    Nuclear Repulsion Energy =              5.2063868625139929
    One-Electron Energy =                -149.7814558130113767
    Two-Electron Energy =                  46.0044544693585635
    Total Energy =                        -98.5706144811388185

Computation Completed


Properties will be evaluated at   0.000000,   0.000000,   0.000000 [a0]

Properties computed using the SCF density matrix

  Nuclear Dipole Moment: [e a0]
     X:     0.9727      Y:    -1.4290      Z:     0.0000

  Electronic Dipole Moment: [e a0]
     X:    -0.6870      Y:     1.0093      Z:     0.0000

  Dipole Moment: [e a0]
     X:     0.2857      Y:    -0.4197      Z:     0.0000     Total:     0.5077

  Dipole Moment: [D]
     X:     0.7261      Y:    -1.0667      Z:     0.0000     Total:     1.2904


*** tstop() called on Swift-SF514-54GT at Mon Jan  3 15:21:51 2022
Module time:
	user time   =       0.12 seconds =       0.00 minutes
	system time =       0.00 seconds =       0.00 minutes
	total time  =          0 seconds =       0.00 minutes
Total time:
	user time   =       1.56 seconds =       0.03 minutes
	system time =       0.08 seconds =       0.00 minutes
	total time  =          1 seconds =       0.02 minutes

*** tstart() called on Swift-SF514-54GT
*** at Mon Jan  3 15:21:51 2022


         ------------------------------------------------------------
                                   SCF GRAD                          
                          Rob Parrish, Justin Turney,                
                       Andy Simmonett, and Alex Sokolov              
         ------------------------------------------------------------

  ==> Geometry <==

    Molecular point group: cs
    Full point group: C_inf_v

    Geometry (in Angstrom), charge = 0, multiplicity = 1:

       Center              X                  Y                   Z               Mass       
    ------------   -----------------  -----------------  -----------------  -----------------
         F            0.000000000000     0.000000000000     0.000000000000    18.998403162730
         H            0.514737740000    -0.756195130000     0.000000000000     1.007825032230

  Nuclear repulsion =    5.206386862513993

  ==> Basis Set <==

  Basis Set: STO-3G
    Blend: STO-3G
    Number of shells: 4
    Number of basis functions: 6
    Number of Cartesian functions: 6
    Spherical Harmonics?: true
    Max angular momentum: 1

  ==> DFJKGrad: Density-Fitted SCF Gradients <==

    Gradient:                    1
    J tasked:                  Yes
    K tasked:                  Yes
    wK tasked:                  No
    OpenMP threads:              1
    Integrals threads:           1
    Memory [MiB]:              375
    Schwarz Cutoff:          1E-12
    Fitting Condition:       1E-10

   => Auxiliary Basis Set <=

  Basis Set: (STO-3G AUX)
    Blend: DEF2-UNIVERSAL-JKFIT
    Number of shells: 31
    Number of basis functions: 95
    Number of Cartesian functions: 113
    Spherical Harmonics?: true
    Max angular momentum: 4


  -Total Gradient:
     Atom            X                  Y                   Z
    ------   -----------------  -----------------  -----------------
       1        0.035429287066    -0.052048746879     0.000000000000
       2       -0.035429287066     0.052048746879     0.000000000000


*** tstop() called on Swift-SF514-54GT at Mon Jan  3 15:21:51 2022
Module time:
	user time   =       0.01 seconds =       0.00 minutes
	system time =       0.01 seconds =       0.00 minutes
	total time  =          0 seconds =       0.00 minutes
Total time:
	user time   =       1.57 seconds =       0.03 minutes
	system time =       0.09 seconds =       0.00 minutes
	total time  =          1 seconds =       0.02 minutes

  Based on options and gradient (rms=3.64E-02), recommend projecting translations and not projecting rotations.
hessian() will perform frequency computation by finite difference of analytic gradients.

         ----------------------------------------------------------
                                   FINDIF
                     R. A. King and Jonathon Misiewicz
         ---------------------------------------------------------

  Using finite-differences of gradients to determine vibrational frequencies and 
  normal modes. Resulting frequencies are only valid at stationary points.
    Generating geometries for use with 3-point formula.
    Displacement size will be 5.00e-03.
    Number of atoms is 2.
    Number of irreps is 2.
    Number of SALCs is 3.
    Translations projected? 1. Rotations projected? 0.
    Index of SALCs per irrep:
     1 :  0  1 
     2 :  2 
    Number of SALCs per irrep:
     Irrep 1: 2
     Irrep 2: 1
    Number of geometries (including reference) is 6.
    Number of displacements per irrep:
      Irrep 1: 4
      Irrep 2: 1

  //>>>>>>>>>>>>>>>>>>>>>>>>>>>>>>>>>>>//
  //    Loading displacement 1 of 6    //
  //<<<<<<<<<<<<<<<<<<<<<<<<<<<<<<<<<<<//

Scratch directory: /tmp/
gradient() will perform analytic gradient computation.

*** tstart() called on Swift-SF514-54GT
*** at Mon Jan  3 15:21:52 2022

   => Loading Basis Set <=

    Name: STO-3G
    Role: ORBITAL
    Keyword: BASIS
    atoms 1 entry F          line    91 file /home/alenaizan/Downloads/temp/psi4/objdir/stage/share/psi4/basis/sto-3g.gbs 
    atoms 2 entry H          line    19 file /home/alenaizan/Downloads/temp/psi4/objdir/stage/share/psi4/basis/sto-3g.gbs 


         ---------------------------------------------------------
                                   SCF
               by Justin Turney, Rob Parrish, Andy Simmonett
                          and Daniel G. A. Smith
                              RHF Reference
                        1 Threads,    500 MiB Core
         ---------------------------------------------------------

  ==> Geometry <==

    Molecular point group: cs
    Full point group: C_inf_v

    Geometry (in Angstrom), charge = 0, multiplicity = 1:

       Center              X                  Y                   Z               Mass       
    ------------   -----------------  -----------------  -----------------  -----------------
         F            0.000000000000     0.000000000000     0.000000000000    18.998403162730
         H            0.514737740000    -0.756195130000     0.000000000000     1.007825032230

  Running in cs symmetry.

  Rotational constants: A = ************  B =     19.98927  C =     19.98927 [cm^-1]
  Rotational constants: A = ************  B = 599263.24905  C = 599263.24905 [MHz]
  Nuclear repulsion =    5.206386862513993

  Charge       = 0
  Multiplicity = 1
  Electrons    = 10
  Nalpha       = 5
  Nbeta        = 5

  ==> Algorithm <==

  SCF Algorithm Type is DF.
  DIIS enabled.
  MOM disabled.
  Fractional occupation disabled.
  Guess Type is SAD.
  Energy threshold   = 1.00e-08
  Density threshold  = 1.00e-08
  Integral threshold = 1.00e-12

  ==> Primary Basis <==

  Basis Set: STO-3G
    Blend: STO-3G
    Number of shells: 4
    Number of basis functions: 6
    Number of Cartesian functions: 6
    Spherical Harmonics?: true
    Max angular momentum: 1

   => Loading Basis Set <=

    Name: (STO-3G AUX)
    Role: JKFIT
    Keyword: DF_BASIS_SCF
    atoms 1 entry F          line   378 file /home/alenaizan/Downloads/temp/psi4/objdir/stage/share/psi4/basis/def2-universal-jkfit.gbs 
    atoms 2 entry H          line    18 file /home/alenaizan/Downloads/temp/psi4/objdir/stage/share/psi4/basis/def2-universal-jkfit.gbs 

  ==> Integral Setup <==

  DFHelper Memory: AOs need 0.000 GiB; user supplied 0.366 GiB. Using in-core AOs.

[...]

       Center              X                  Y                   Z               Mass       
    ------------   -----------------  -----------------  -----------------  -----------------
         F            0.000000000000     0.000000000000     0.000000000000    18.998403162730
         H            0.514737740000    -0.756195130000    -0.002571616844     1.007825032230
         F            2.588764560000    -0.183867180000     0.000129546649    18.998403162730
         H            2.075364190000     0.573204170000     0.000129546649     1.007825032230

  Running in c1 symmetry.

  Rotational constants: A =     16.34322  B =      0.12728  C =      0.12629 [cm^-1]
  Rotational constants: A = 489957.44174  B =   3815.68559  C =   3786.19965 [MHz]
  Nuclear repulsion =   31.612452382872938

  Charge       = 0
  Multiplicity = 1
  Electrons    = 20
  Nalpha       = 10
  Nbeta        = 10

  ==> Algorithm <==

  SCF Algorithm Type is DF.
  DIIS enabled.
  MOM disabled.
  Fractional occupation disabled.
  Guess Type is SAD.
  Energy threshold   = 1.00e-08
  Density threshold  = 1.00e-08
  Integral threshold = 1.00e-12

  ==> Primary Basis <==

  Basis Set: STO-3G
    Blend: STO-3G
    Number of shells: 8
    Number of basis functions: 12
    Number of Cartesian functions: 12
    Spherical Harmonics?: true
    Max angular momentum: 1

   => Loading Basis Set <=

    Name: (STO-3G AUX)
    Role: JKFIT
    Keyword: DF_BASIS_SCF
    atoms 1, 3 entry F          line   378 file /home/alenaizan/Downloads/temp/psi4/objdir/stage/share/psi4/basis/def2-universal-jkfit.gbs 
    atoms 2, 4 entry H          line    18 file /home/alenaizan/Downloads/temp/psi4/objdir/stage/share/psi4/basis/def2-universal-jkfit.gbs 

  ==> Integral Setup <==

  DFHelper Memory: AOs need 0.001 GiB; user supplied 0.366 GiB. Using in-core AOs.

  ==> MemDFJK: Density-Fitted J/K Matrices <==

    J tasked:                   Yes
    K tasked:                   Yes
    wK tasked:                   No
    OpenMP threads:               1
    Memory [MiB]:               375
    Algorithm:                 Core
    Schwarz Cutoff:           1E-12
    Mask sparsity (%):       1.3889
    Fitting Condition:        1E-10

   => Auxiliary Basis Set <=

  Basis Set: (STO-3G AUX)
    Blend: DEF2-UNIVERSAL-JKFIT
    Number of shells: 62
    Number of basis functions: 190
    Number of Cartesian functions: 226
    Spherical Harmonics?: true
    Max angular momentum: 4

  Minimum eigenvalue in the overlap matrix is 3.9657561467E-01.
  Reciprocal condition number of the overlap matrix is 2.3127545621E-01.
    Using symmetric orthogonalization.

  ==> Pre-Iterations <==

  SCF Guess: Superposition of Atomic Densities via on-the-fly atomic UHF (no occupation information).

   -------------------------
    Irrep   Nso     Nmo    
   -------------------------
     A         12      12 
   -------------------------
    Total      12      12
   -------------------------

  ==> Iterations <==

                           Total Energy        Delta E     RMS |[F,P]|

   @DF-RHF iter SAD:  -196.21747481900303   -1.96217e+02   0.00000e+00 
   @DF-RHF iter   1:  -197.06395044442331   -8.46476e-01   2.35083e-02 DIIS
   @DF-RHF iter   2:  -197.14152696261215   -7.75765e-02   4.33611e-03 DIIS
   @DF-RHF iter   3:  -197.14424662546560   -2.71966e-03   5.53642e-04 DIIS
   @DF-RHF iter   4:  -197.14428326911894   -3.66437e-05   2.24914e-05 DIIS
   @DF-RHF iter   5:  -197.14428334955264   -8.04337e-08   4.34097e-06 DIIS
   @DF-RHF iter   6:  -197.14428335401817   -4.46553e-09   1.03521e-06 DIIS
   @DF-RHF iter   7:  -197.14428335426643   -2.48264e-10   1.39138e-07 DIIS
   @DF-RHF iter   8:  -197.14428335426905   -2.61480e-12   4.28849e-09 DIIS
  Energy and wave function converged.


  ==> Post-Iterations <==

    Orbital Energies [Eh]
    ---------------------

    Doubly Occupied:                                                      

       1A    -25.903940     2A    -25.903736     3A     -1.488178  
       4A     -1.473619     5A     -0.601898     6A     -0.593459  
       7A     -0.475748     8A     -0.473106     9A     -0.470841  
      10A     -0.463207  

    Virtual:                                                              

      11A      0.606837    12A      0.665981  

    Final Occupation by Irrep:
              A 
    DOCC [    10 ]

  @DF-RHF Final Energy:  -197.14428335426905

   => Energetics <=

    Nuclear Repulsion Energy =             31.6124523828729380
    One-Electron Energy =                -341.8180090290097723
    Two-Electron Energy =                 113.0612732918677779
    Total Energy =                       -197.1442833542690209

Computation Completed


Properties will be evaluated at   0.000000,   0.000000,   0.000000 [a0]

Properties computed using the SCF density matrix

  Nuclear Dipole Moment: [e a0]
     X:    48.9231      Y:    -3.4729      Z:    -0.0024

  Electronic Dipole Moment: [e a0]
     X:   -48.9222      Y:     3.4735      Z:     0.0009

  Dipole Moment: [e a0]
     X:     0.0009      Y:     0.0005      Z:    -0.0015     Total:     0.0018

  Dipole Moment: [D]
     X:     0.0024      Y:     0.0014      Z:    -0.0038     Total:     0.0047


*** tstop() called on Swift-SF514-54GT at Mon Jan  3 15:22:29 2022
Module time:
	user time   =       0.19 seconds =       0.00 minutes
	system time =       0.01 seconds =       0.00 minutes
	total time  =          0 seconds =       0.00 minutes
Total time:
	user time   =      38.26 seconds =       0.64 minutes
	system time =       0.86 seconds =       0.01 minutes
	total time  =         39 seconds =       0.65 minutes

*** tstart() called on Swift-SF514-54GT
*** at Mon Jan  3 15:22:29 2022


         ------------------------------------------------------------
                                   SCF GRAD                          
                          Rob Parrish, Justin Turney,                
                       Andy Simmonett, and Alex Sokolov              
         ------------------------------------------------------------

  ==> Geometry <==

    Molecular point group: c1
    Full point group: C1

    Geometry (in Angstrom), charge = 0, multiplicity = 1:

       Center              X                  Y                   Z               Mass       
    ------------   -----------------  -----------------  -----------------  -----------------
         F            0.000000000000     0.000000000000     0.000000000000    18.998403162730
         H            0.514737740000    -0.756195130000    -0.002571616844     1.007825032230
         F            2.588764560000    -0.183867180000     0.000129546649    18.998403162730
         H            2.075364190000     0.573204170000     0.000129546649     1.007825032230

  Nuclear repulsion =   31.612452382872938

  ==> Basis Set <==

  Basis Set: STO-3G
    Blend: STO-3G
    Number of shells: 8
    Number of basis functions: 12
    Number of Cartesian functions: 12
    Spherical Harmonics?: true
    Max angular momentum: 1

  ==> DFJKGrad: Density-Fitted SCF Gradients <==

    Gradient:                    1
    J tasked:                  Yes
    K tasked:                  Yes
    wK tasked:                  No
    OpenMP threads:              1
    Integrals threads:           1
    Memory [MiB]:              375
    Schwarz Cutoff:          1E-12
    Fitting Condition:       1E-10

   => Auxiliary Basis Set <=

  Basis Set: (STO-3G AUX)
    Blend: DEF2-UNIVERSAL-JKFIT
    Number of shells: 62
    Number of basis functions: 190
    Number of Cartesian functions: 226
    Spherical Harmonics?: true
    Max angular momentum: 4


  -Total Gradient:
     Atom            X                  Y                   Z
    ------   -----------------  -----------------  -----------------
       1        0.032490291095    -0.050348411234    -0.000160713523
       2       -0.032784955655     0.051835273880     0.000163348993
       3       -0.032415103558     0.050458637290     0.000011172931
       4        0.032709768125    -0.051945499936    -0.000013808401


*** tstop() called on Swift-SF514-54GT at Mon Jan  3 15:22:29 2022
Module time:
	user time   =       0.02 seconds =       0.00 minutes
	system time =       0.01 seconds =       0.00 minutes
	total time  =          0 seconds =       0.00 minutes
Total time:
	user time   =      38.28 seconds =       0.64 minutes
	system time =       0.87 seconds =       0.01 minutes
	total time  =         39 seconds =       0.65 minutes

  //>>>>>>>>>>>>>>>>>>>>>>>>>>>>>>>>>>>//
  //   Loading displacement 16 of 16   //
  //<<<<<<<<<<<<<<<<<<<<<<<<<<<<<<<<<<<//

Scratch directory: /tmp/
gradient() will perform analytic gradient computation.

*** tstart() called on Swift-SF514-54GT
*** at Mon Jan  3 15:22:29 2022

   => Loading Basis Set <=

    Name: STO-3G
    Role: ORBITAL
    Keyword: BASIS
    atoms 1, 3 entry F          line    91 file /home/alenaizan/Downloads/temp/psi4/objdir/stage/share/psi4/basis/sto-3g.gbs 
    atoms 2, 4 entry H          line    19 file /home/alenaizan/Downloads/temp/psi4/objdir/stage/share/psi4/basis/sto-3g.gbs 


         ---------------------------------------------------------
                                   SCF
               by Justin Turney, Rob Parrish, Andy Simmonett
                          and Daniel G. A. Smith
                              RHF Reference
                        1 Threads,    500 MiB Core
         ---------------------------------------------------------

  ==> Geometry <==

    Molecular point group: c1
    Full point group: C1

    Geometry (in Angstrom), charge = 0, multiplicity = 1:

       Center              X                  Y                   Z               Mass       
    ------------   -----------------  -----------------  -----------------  -----------------
         F            0.000000000000     0.000000000000     0.000000000000    18.998403162730
         H            0.514737740000    -0.756195130000     0.000000000000     1.007825032230
         F            2.588764560000    -0.183867180000    -0.000136245620    18.998403162730
         H            2.075364190000     0.573204170000     0.002568351778     1.007825032230

  Running in c1 symmetry.

  Rotational constants: A =     16.34322  B =      0.12728  C =      0.12629 [cm^-1]
  Rotational constants: A = 489957.35236  B =   3815.68558  C =   3786.19965 [MHz]
  Nuclear repulsion =   31.612450387701276

  Charge       = 0
  Multiplicity = 1
  Electrons    = 20
  Nalpha       = 10
  Nbeta        = 10

  ==> Algorithm <==

  SCF Algorithm Type is DF.
  DIIS enabled.
  MOM disabled.
  Fractional occupation disabled.
  Guess Type is SAD.
  Energy threshold   = 1.00e-08
  Density threshold  = 1.00e-08
  Integral threshold = 1.00e-12

  ==> Primary Basis <==

  Basis Set: STO-3G
    Blend: STO-3G
    Number of shells: 8
    Number of basis functions: 12
    Number of Cartesian functions: 12
    Spherical Harmonics?: true
    Max angular momentum: 1

   => Loading Basis Set <=

    Name: (STO-3G AUX)
    Role: JKFIT
    Keyword: DF_BASIS_SCF
    atoms 1, 3 entry F          line   378 file /home/alenaizan/Downloads/temp/psi4/objdir/stage/share/psi4/basis/def2-universal-jkfit.gbs 
    atoms 2, 4 entry H          line    18 file /home/alenaizan/Downloads/temp/psi4/objdir/stage/share/psi4/basis/def2-universal-jkfit.gbs 

  ==> Integral Setup <==

  DFHelper Memory: AOs need 0.001 GiB; user supplied 0.366 GiB. Using in-core AOs.

  ==> MemDFJK: Density-Fitted J/K Matrices <==

    J tasked:                   Yes
    K tasked:                   Yes
    wK tasked:                   No
    OpenMP threads:               1
    Memory [MiB]:               375
    Algorithm:                 Core
    Schwarz Cutoff:           1E-12
    Mask sparsity (%):       1.3889
    Fitting Condition:        1E-10

   => Auxiliary Basis Set <=

  Basis Set: (STO-3G AUX)
    Blend: DEF2-UNIVERSAL-JKFIT
    Number of shells: 62
    Number of basis functions: 190
    Number of Cartesian functions: 226
    Spherical Harmonics?: true
    Max angular momentum: 4

  Minimum eigenvalue in the overlap matrix is 3.9657574220E-01.
  Reciprocal condition number of the overlap matrix is 2.3127554639E-01.
    Using symmetric orthogonalization.

  ==> Pre-Iterations <==

  SCF Guess: Superposition of Atomic Densities via on-the-fly atomic UHF (no occupation information).

   -------------------------
    Irrep   Nso     Nmo    
   -------------------------
     A         12      12 
   -------------------------
    Total      12      12
   -------------------------

  ==> Iterations <==

                           Total Energy        Delta E     RMS |[F,P]|

   @DF-RHF iter SAD:  -196.21747428074801   -1.96217e+02   0.00000e+00 
   @DF-RHF iter   1:  -197.06395044402854   -8.46476e-01   2.35083e-02 DIIS
   @DF-RHF iter   2:  -197.14152700408644   -7.75766e-02   4.33611e-03 DIIS
   @DF-RHF iter   3:  -197.14424666671187   -2.71966e-03   5.53642e-04 DIIS
   @DF-RHF iter   4:  -197.14428331040023   -3.66437e-05   2.24914e-05 DIIS
   @DF-RHF iter   5:  -197.14428339083435   -8.04341e-08   4.34098e-06 DIIS
   @DF-RHF iter   6:  -197.14428339529999   -4.46565e-09   1.03522e-06 DIIS
   @DF-RHF iter   7:  -197.14428339554803   -2.48036e-10   1.39139e-07 DIIS
   @DF-RHF iter   8:  -197.14428339555059   -2.55795e-12   4.28851e-09 DIIS
  Energy and wave function converged.


  ==> Post-Iterations <==

    Orbital Energies [Eh]
    ---------------------

    Doubly Occupied:                                                      

       1A    -25.903940     2A    -25.903736     3A     -1.488178  
       4A     -1.473619     5A     -0.601898     6A     -0.593459  
       7A     -0.475748     8A     -0.473106     9A     -0.470841  
      10A     -0.463207  

    Virtual:                                                              

      11A      0.606836    12A      0.665981  

    Final Occupation by Irrep:
              A 
    DOCC [    10 ]

  @DF-RHF Final Energy:  -197.14428339555059

   => Energetics <=

    Nuclear Repulsion Energy =             31.6124503877012764
    One-Electron Energy =                -341.8180056304722712
    Two-Electron Energy =                 113.0612718472203824
    Total Energy =                       -197.1442833955505876

Computation Completed


Properties will be evaluated at   0.000000,   0.000000,   0.000000 [a0]

Properties computed using the SCF density matrix

  Nuclear Dipole Moment: [e a0]
     X:    48.9231      Y:    -3.4729      Z:     0.0025

  Electronic Dipole Moment: [e a0]
     X:   -48.9221      Y:     3.4735      Z:    -0.0010

  Dipole Moment: [e a0]
     X:     0.0009      Y:     0.0005      Z:     0.0016     Total:     0.0019

  Dipole Moment: [D]
     X:     0.0024      Y:     0.0013      Z:     0.0040     Total:     0.0048


*** tstop() called on Swift-SF514-54GT at Mon Jan  3 15:22:29 2022
Module time:
	user time   =       0.19 seconds =       0.00 minutes
	system time =       0.00 seconds =       0.00 minutes
	total time  =          0 seconds =       0.00 minutes
Total time:
	user time   =      38.47 seconds =       0.64 minutes
	system time =       0.87 seconds =       0.01 minutes
	total time  =         39 seconds =       0.65 minutes

*** tstart() called on Swift-SF514-54GT
*** at Mon Jan  3 15:22:29 2022


         ------------------------------------------------------------
                                   SCF GRAD                          
                          Rob Parrish, Justin Turney,                
                       Andy Simmonett, and Alex Sokolov              
         ------------------------------------------------------------

  ==> Geometry <==

    Molecular point group: c1
    Full point group: C1

    Geometry (in Angstrom), charge = 0, multiplicity = 1:

       Center              X                  Y                   Z               Mass       
    ------------   -----------------  -----------------  -----------------  -----------------
         F            0.000000000000     0.000000000000     0.000000000000    18.998403162730
         H            0.514737740000    -0.756195130000     0.000000000000     1.007825032230
         F            2.588764560000    -0.183867180000    -0.000136245620    18.998403162730
         H            2.075364190000     0.573204170000     0.002568351778     1.007825032230

  Nuclear repulsion =   31.612450387701276

  ==> Basis Set <==

  Basis Set: STO-3G
    Blend: STO-3G
    Number of shells: 8
    Number of basis functions: 12
    Number of Cartesian functions: 12
    Spherical Harmonics?: true
    Max angular momentum: 1

  ==> DFJKGrad: Density-Fitted SCF Gradients <==

    Gradient:                    1
    J tasked:                  Yes
    K tasked:                  Yes
    wK tasked:                  No
    OpenMP threads:              1
    Integrals threads:           1
    Memory [MiB]:              375
    Schwarz Cutoff:          1E-12
    Fitting Condition:       1E-10

   => Auxiliary Basis Set <=

  Basis Set: (STO-3G AUX)
    Blend: DEF2-UNIVERSAL-JKFIT
    Number of shells: 62
    Number of basis functions: 190
    Number of Cartesian functions: 226
    Spherical Harmonics?: true
    Max angular momentum: 4


  -Total Gradient:
     Atom            X                  Y                   Z
    ------   -----------------  -----------------  -----------------
       1        0.032493973298    -0.050353729308    -0.000011511125
       2       -0.032788631170     0.051840594692     0.000014245099
       3       -0.032411050097     0.050452742425     0.000168985326
       4        0.032705707976    -0.051939607810    -0.000171719301


*** tstop() called on Swift-SF514-54GT at Mon Jan  3 15:22:29 2022
Module time:
	user time   =       0.03 seconds =       0.00 minutes
	system time =       0.00 seconds =       0.00 minutes
	total time  =          0 seconds =       0.00 minutes
Total time:
	user time   =      38.50 seconds =       0.64 minutes
	system time =       0.87 seconds =       0.01 minutes
	total time  =         39 seconds =       0.65 minutes

         ----------------------------------------------------------
                                   FINDIF
                     R. A. King and Jonathon Misiewicz
         ---------------------------------------------------------

  Computing second-derivative from gradients using projected, 
  symmetry-adapted, cartesian coordinates.

  16 gradients passed in, including the reference geometry.
  Generating complete list of displacements from unique ones.

    Operation 2 takes plus displacements of irrep A" to minus ones.

-------------------------------------------------------------

       N-Body: Complex Energy (fragments = (1, 2), basis = (1, 2):  -197.14428295705497)

   ==> N-Body: Valiron-Mayer Function Couterpoise (VMFC) energies <==

   n-Body     Total Energy [Eh]       I.E. [kcal/mol]      Delta [kcal/mol]
        1     -197.141225771323        0.000000000000        0.000000000000
        2     -197.139276596156        1.223125883415        1.223125883415

   => Loading Basis Set <=

    Name: DEF2-SVP
    Role: ORBITAL
    Keyword: BASIS
    atoms 1, 3 entry F          line   150 file /home/alenaizan/Downloads/temp/psi4/objdir/stage/share/psi4/basis/def2-svp.gbs 
    atoms 2, 4 entry H          line    15 file /home/alenaizan/Downloads/temp/psi4/objdir/stage/share/psi4/basis/def2-svp.gbs 


   ==> N-Body: Valiron-Mayer Function Couterpoise (VMFC) energies <==

   n-Body     Total Energy [Eh]       I.E. [kcal/mol]      Delta [kcal/mol]
        1     -197.141225771323        0.000000000000        0.000000000000
        2     -197.139276596156        1.223125883415        1.223125883415

    vmfc-corrected Hessian from finite differences of the gradient........................PASSED

    Psi4 stopped on: Monday, 03 January 2022 03:22PM
    Psi4 wall time for execution: 0:00:39.47

*** Psi4 exiting successfully. Buy a developer a beer!
