
    -----------------------------------------------------------------------
          Psi4: An Open-Source Ab Initio Electronic Structure Package
                               Psi4 1.1rc3.dev5 

                         Git: Rev {master} 3fbd859 


    R. M. Parrish, L. A. Burns, D. G. A. Smith, A. C. Simmonett,
    A. E. DePrince III, E. G. Hohenstein, U. Bozkaya, A. Yu. Sokolov,
    R. Di Remigio, R. M. Richard, J. F. Gonthier, A. M. James,
    H. R. McAlexander, A. Kumar, M. Saitow, X. Wang, B. P. Pritchard,
    P. Verma, H. F. Schaefer III, K. Patkowski, R. A. King, E. F. Valeev,
    F. A. Evangelista, J. M. Turney, T. D. Crawford, and C. D. Sherrill,
    J. Chem. Theory Comput. in press (2017).
    (doi: 10.1021/acs.jctc.7b00174)

    -----------------------------------------------------------------------


    Psi4 started on: Monday, 15 May 2017 03:37PM

    Process ID:  14971
    PSIDATADIR: /home/psilocaluser/gits/hrw-direct/objdir4/stage/usr/local/psi4/share/psi4
    Memory:     500.0 MiB
    Threads:    1
    
  ==> Input File <==

--------------------------------------------------------------------------
#! Various constrained energy minimizations of HOOH with cc-pvdz RHF.
#! Cartesian-coordinate constrained optimizations of HOOH in Cartesians.

HOOH_E_fixed_H_xyz = -150.7866490998188      #TEST
HOOH_E_fixed_O_xyz = -150.7866389583059      #TEST
HOOH_E             = -150.7866739753094      #TEST

set {
  basis cc-pvdz
  opt_coordinates cartesian
}

# Freeze H xyz in HOOH.
molecule {
  H  0.90  0.80  0.5
  O  0.00  0.70  0.0
  O  0.00 -0.70  0.0
  H -0.90 -0.80  0.5
  no_com
  no_reorient
}

freeze_list = """
  1 xyz 
  4 xyz 
"""

set optking frozen_cartesian $freeze_list
thisenergy = optimize('scf')
compare_values(HOOH_E_fixed_H_xyz, thisenergy, 6, "Cart. Coord. RHF opt of HOOH with H's xyz frozen, energy")  #TEST

# Freeze O xyz in HOOH.
molecule {
  H  0.90  0.80  0.5
  O  0.00  0.70  0.0
  O  0.00 -0.70  0.0
  H -0.90 -0.80  0.5
  no_com
  no_reorient
}

freeze_list = """
  2 xyz 
  3 xyz 
"""

set optking frozen_cartesian $freeze_list
thisenergy = optimize('scf')
compare_values(HOOH_E_fixed_O_xyz, thisenergy, 6, "Cart. Coord. RHF opt of HOOH with O's xyz frozen, energy")  #TEST

# Full optimization
molecule {
  H  0.90  0.80  0.5
  O  0.00  0.70  0.0
  O  0.00 -0.70  0.0
  H -0.90 -0.80  0.5
  no_com
  no_reorient
}

freeze_list = ""
set optking frozen_cartesian $freeze_list
thisenergy = optimize('scf')
compare_values(HOOH_E, thisenergy, 6, "Cart. Coord. RHF opt of HOOH, energy")  #TEST

--------------------------------------------------------------------------
gradient() will perform analytic gradient computation.

*** tstart() called on psinet
*** at Mon May 15 15:37:57 2017

   => Loading Basis Set <=

    Name: CC-PVDZ
    Role: ORBITAL
    Keyword: BASIS
    atoms 1, 4 entry H          line    20 file /home/psilocaluser/gits/hrw-direct/objdir4/stage/usr/local/psi4/share/psi4/basis/cc-pvdz.gbs 
    atoms 2-3  entry O          line   190 file /home/psilocaluser/gits/hrw-direct/objdir4/stage/usr/local/psi4/share/psi4/basis/cc-pvdz.gbs 

    There are an even number of electrons - assuming singlet.
    Specify the multiplicity in the molecule input block.


         ---------------------------------------------------------
                                   SCF
            by Justin Turney, Rob Parrish, and Andy Simmonett
                              RHF Reference
                        1 Threads,    500 MiB Core
         ---------------------------------------------------------

  ==> Geometry <==

    Molecular point group: c2
    Full point group: C2

    Geometry (in Angstrom), charge = 0, multiplicity = 1:

       Center              X                  Y                   Z               Mass       
    ------------   -----------------  -----------------  -----------------  -----------------
           H          0.900000000000     0.800000000000     0.500000000000     1.007825032070
           O         -0.000000000000     0.700000000000     0.000000000000    15.994914619560
           O          0.000000000000    -0.700000000000     0.000000000000    15.994914619560
           H         -0.900000000000    -0.800000000000     0.500000000000     1.007825032070

  Running in c2 symmetry.

  Rotational constants: A =      8.42700  B =      0.95754  C =      0.90644 [cm^-1]
  Rotational constants: A = 252635.18894  B =  28706.39138  C =  27174.26147 [MHz]
  Nuclear repulsion =   37.249679237734171

  Charge       = 0
  Multiplicity = 1
  Electrons    = 18
  Nalpha       = 9
  Nbeta        = 9

  ==> Algorithm <==

  SCF Algorithm Type is DF.
  DIIS enabled.
  MOM disabled.
  Fractional occupation disabled.
  Guess Type is SAD.
  Energy threshold   = 1.00e-08
  Density threshold  = 1.00e-08
  Integral threshold = 0.00e+00

  ==> Primary Basis <==

  Basis Set: CC-PVDZ
    Blend: CC-PVDZ
    Number of shells: 18
    Number of basis function: 38
    Number of Cartesian functions: 40
    Spherical Harmonics?: true
    Max angular momentum: 2

   => Loading Basis Set <=

    Name: (CC-PVDZ AUX)
    Role: JKFIT
    Keyword: DF_BASIS_SCF
    atoms 1, 4 entry H          line    50 file /home/psilocaluser/gits/hrw-direct/objdir4/stage/usr/local/psi4/share/psi4/basis/cc-pvdz-jkfit.gbs 
    atoms 2-3  entry O          line   220 file /home/psilocaluser/gits/hrw-direct/objdir4/stage/usr/local/psi4/share/psi4/basis/cc-pvdz-jkfit.gbs 

  ==> Pre-Iterations <==

   -------------------------------------------------------
    Irrep   Nso     Nmo     Nalpha   Nbeta   Ndocc  Nsocc
   -------------------------------------------------------
     A         19      19       0       0       0       0
     B         19      19       0       0       0       0
   -------------------------------------------------------
    Total      38      38       9       9       9       0
   -------------------------------------------------------

  ==> Integral Setup <==

  ==> DFJK: Density-Fitted J/K Matrices <==

    J tasked:                  Yes
    K tasked:                  Yes
    wK tasked:                  No
    OpenMP threads:              1
    Integrals threads:           1
    Memory (MB):               375
    Algorithm:                Core
    Integral Cache:           NONE
    Schwarz Cutoff:          1E-12
    Fitting Condition:       1E-12

   => Auxiliary Basis Set <=

  Basis Set: (CC-PVDZ AUX)
    Blend: CC-PVDZ-JKFIT
    Number of shells: 66
    Number of basis function: 186
    Number of Cartesian functions: 212
    Spherical Harmonics?: true
    Max angular momentum: 3

  Minimum eigenvalue in the overlap matrix is 2.3342885163E-02.
  Using Symmetric Orthogonalization.

  SCF Guess: Superposition of Atomic Densities via on-the-fly atomic UHF.

  ==> Iterations <==

                           Total Energy        Delta E     RMS |[F,P]|

   @DF-RHF iter   0:  -151.06011087896496   -1.51060e+02   8.74450e-02 
   @DF-RHF iter   1:  -150.71797501251879    3.42136e-01   1.23753e-02 
   @DF-RHF iter   2:  -150.76378059228767   -4.58056e-02   4.42822e-03 DIIS
   @DF-RHF iter   3:  -150.76883789817043   -5.05731e-03   1.07801e-03 DIIS
   @DF-RHF iter   4:  -150.76947339487907   -6.35497e-04   3.56324e-04 DIIS
   @DF-RHF iter   5:  -150.76955598977656   -8.25949e-05   6.87517e-05 DIIS
   @DF-RHF iter   6:  -150.76956189794095   -5.90816e-06   2.10388e-05 DIIS
   @DF-RHF iter   7:  -150.76956256566416   -6.67723e-07   7.79590e-06 DIIS
   @DF-RHF iter   8:  -150.76956267710733   -1.11443e-07   2.28394e-06 DIIS
   @DF-RHF iter   9:  -150.76956268624360   -9.13627e-09   5.04936e-07 DIIS
   @DF-RHF iter  10:  -150.76956268662553   -3.81931e-10   1.17704e-07 DIIS
   @DF-RHF iter  11:  -150.76956268664418   -1.86446e-11   2.79308e-08 DIIS
   @DF-RHF iter  12:  -150.76956268664523   -1.05160e-12   7.48962e-09 DIIS

  ==> Post-Iterations <==

    Orbital Energies (a.u.)
    -----------------------

    Doubly Occupied:                                                      

       1A    -20.622250     1B    -20.621916     2A     -1.483682  
       2B     -1.168605     3B     -0.708299     3A     -0.681826  
       4A     -0.608070     5A     -0.505059     4B     -0.455996  

    Virtual:                                                              

       6A      0.175190     5B      0.194106     6B      0.331804  
       7A      0.765000     7B      0.775224     8B      1.117505  
       8A      1.128439     9A      1.146644     9B      1.205296  
      10B      1.298367    10A      1.336436    11B      1.426651  
      11A      1.512363    12B      1.635462    12A      1.682966  
      13A      1.959496    13B      2.025157    14B      2.289856  
      14A      2.305904    15A      2.691431    16A      2.831109  
      15B      2.856676    17A      3.190793    16B      3.221240  
      17B      3.477039    18A      3.553928    19A      3.850120  
      18B      3.851396    19B      4.273481  

    Final Occupation by Irrep:
              A     B 
    DOCC [     5,    4 ]

  Energy converged.

  @DF-RHF Final Energy:  -150.76956268664523

   => Energetics <=

    Nuclear Repulsion Energy =             37.2496792377341706
    One-Electron Energy =                -282.3270756136328714
    Two-Electron Energy =                  94.3078336892534992
    DFT Exchange-Correlation Energy =       0.0000000000000000
    Empirical Dispersion Energy =           0.0000000000000000
    PCM Polarization Energy =               0.0000000000000000
    EFP Energy =                            0.0000000000000000
    Total Energy =                       -150.7695626866452017



Properties will be evaluated at   0.000000,   0.000000,   0.000000 Bohr

Properties computed using the SCF density matrix

  Nuclear Dipole Moment: (a.u.)
     X:     0.0000      Y:    -0.0000      Z:     1.8897

  Electronic Dipole Moment: (a.u.)
     X:     0.0000      Y:     0.0000      Z:    -1.1753

  Dipole Moment: (a.u.)
     X:     0.0000      Y:    -0.0000      Z:     0.7144     Total:     0.7144

  Dipole Moment: (Debye)
     X:     0.0000      Y:    -0.0000      Z:     1.8158     Total:     1.8158


*** tstop() called on psinet at Mon May 15 15:37:58 2017
Module time:
	user time   =       0.53 seconds =       0.01 minutes
	system time =       0.03 seconds =       0.00 minutes
	total time  =          1 seconds =       0.02 minutes
Total time:
	user time   =       0.53 seconds =       0.01 minutes
	system time =       0.03 seconds =       0.00 minutes
	total time  =          1 seconds =       0.02 minutes

*** tstart() called on psinet
*** at Mon May 15 15:37:58 2017


         ------------------------------------------------------------
                                   SCF GRAD                          
                          Rob Parrish, Justin Turney,                
                       Andy Simmonett, and Alex Sokolov              
         ------------------------------------------------------------

  ==> Geometry <==

    Molecular point group: c2
    Full point group: C2

    Geometry (in Angstrom), charge = 0, multiplicity = 1:

       Center              X                  Y                   Z               Mass       
    ------------   -----------------  -----------------  -----------------  -----------------
           H          0.900000000000     0.800000000000     0.500000000000     1.007825032070
           O         -0.000000000000     0.700000000000     0.000000000000    15.994914619560
           O          0.000000000000    -0.700000000000     0.000000000000    15.994914619560
           H         -0.900000000000    -0.800000000000     0.500000000000     1.007825032070

  Nuclear repulsion =   37.249679237734171

  ==> Basis Set <==

  Basis Set: CC-PVDZ
    Blend: CC-PVDZ
    Number of shells: 18
    Number of basis function: 38
    Number of Cartesian functions: 40
    Spherical Harmonics?: true
    Max angular momentum: 2

  ==> DFJKGrad: Density-Fitted SCF Gradients <==

    Gradient:                    1
    J tasked:                  Yes
    K tasked:                  Yes
    wK tasked:                  No
    OpenMP threads:              1
    Integrals threads:           1
    Memory (MB):               375
    Schwarz Cutoff:          0E+00
    Fitting Condition:       1E-12

   => Auxiliary Basis Set <=

  Basis Set: (CC-PVDZ AUX)
    Blend: CC-PVDZ-JKFIT
    Number of shells: 66
    Number of basis function: 186
    Number of Cartesian functions: 212
    Spherical Harmonics?: true
    Max angular momentum: 3


  -Total Gradient:
     Atom            X                  Y                   Z
    ------   -----------------  -----------------  -----------------
       1        0.065982835666    -0.009615094099     0.037074161757
       2       -0.087771205177    -0.006438533370    -0.037074161757
       3        0.087771205177     0.006438533370    -0.037074161757
       4       -0.065982835666     0.009615094099     0.037074161757


*** tstop() called on psinet at Mon May 15 15:37:58 2017
Module time:
	user time   =       0.22 seconds =       0.00 minutes
	system time =       0.01 seconds =       0.00 minutes
	total time  =          0 seconds =       0.00 minutes
Total time:
	user time   =       0.75 seconds =       0.01 minutes
	system time =       0.04 seconds =       0.00 minutes
	total time  =          1 seconds =       0.02 minutes

			-----------------------------------------
			 OPTKING 2.0: for geometry optimizations 
			  - R.A. King,  Bethel University        
			-----------------------------------------

	Internal coordinates to be generated automatically.
	Detected frag 1 with atoms:  1 2 3 4
	---Fragment 1 Bond Connectivity---
	 1 : 2
	 2 : 1 3
	 3 : 2 4
	 4 : 3

	Assuming in current code that numbering for constraints corresponds to unified fragment.
	---Fragment 1 Geometry and Gradient---
	 H           1.7007535196        1.5117809063        0.9448630664
	 O          -0.0000000000        1.3228082930        0.0000000000
	 O           0.0000000000       -1.3228082930        0.0000000000
	 H          -1.7007535196       -1.5117809063        0.9448630664
	             0.0659828357       -0.0096150941        0.0370741618
	            -0.0877712052       -0.0064385334       -0.0370741618
	             0.0877712052        0.0064385334       -0.0370741618
	            -0.0659828357        0.0096150941        0.0370741618

	Previous optimization step data not found.  Starting new optimization.

	---Fragment 1 Intrafragment Coordinates---
	 - Coordinate -           - BOHR/RAD -       - ANG/DEG -
	*R(1,X)           =         1.700754	       0.900000
	*R(1,Y)           =         1.511781	       0.800000
	*R(1,Z)           =         0.944863	       0.500000
	 R(2,X)           =        -0.000000	      -0.000000
	 R(2,Y)           =         1.322808	       0.700000
	 R(2,Z)           =         0.000000	       0.000000
	 R(3,X)           =         0.000000	       0.000000
	 R(3,Y)           =        -1.322808	      -0.700000
	 R(3,Z)           =         0.000000	       0.000000
	*R(4,X)           =        -1.700754	      -0.900000
	*R(4,Y)           =        -1.511781	      -0.800000
	*R(4,Z)           =         0.944863	       0.500000

	Current energy   :      -150.7695626866

	Using model Hessian from Lindh (1995).
	 - Coordinate -           - BOHR/RAD -       - ANG/DEG -
	 R(1,2)           =         1.954748	       1.034408
	 R(1,3)           =         3.438055	       1.819341
	 R(2,3)           =         2.645617	       1.400000
	 R(2,4)           =         3.438055	       1.819341
	 R(3,4)           =         1.954748	       1.034408
	 B(1,2,3)         =         1.667621	      95.547656
	 B(1,2,4)         =         1.957643	     112.164693
	 B(1,3,2)         =         0.601523	      34.464744
	 B(1,3,4)         =         1.957643	     112.164693
	 B(2,1,3)         =         0.872448	      49.987600
	 B(2,3,4)         =         1.667621	      95.547656
	 B(2,4,3)         =         0.872448	      49.987600
	 B(3,2,4)         =         0.601523	      34.464744
	 D(1,2,3,4)       =         2.127396	     121.890792
	 D(1,2,4,3)       =        -1.149382	     -65.854744
	 D(1,3,2,4)       =        -2.127396	    -121.890792
	 D(1,3,4,2)       =         0.545469	      31.253090
	 D(2,1,3,4)       =        -1.149382	     -65.854744
	 D(3,1,2,4)       =         0.545469	      31.253090

	Taking RFO optimization step.
	Going to follow RFO solution 1.
	Using RFO vector 1.
	Norm of target step-size    0.19486
	Projected energy change by RFO approximation:        -0.0252321451

	Back-transformation to cartesian coordinates...
	Successfully converged to displaced geometry.

	Back-transformation to cartesian coordinates to adjust frozen coordinates...
	Successfully converged to displaced geometry.

	--- Internal Coordinate Step in ANG or DEG, aJ/ANG or AJ/DEG ---
	 ---------------------------------------------------------------------------
	   Coordinate                Previous        Force       Change         New 
	   ----------                --------       ------       ------       ------
	    1 *R(1,X)         =      0.900000     0.000000     0.000000     0.900000
	    2 *R(1,Y)         =      0.800000     0.000000     0.000000     0.800000
	    3 *R(1,Z)         =      0.500000     0.000000     0.000000     0.500000
	    4 R(2,X)          =     -0.000000     0.723123     0.070262     0.070262
	    5 R(2,Y)          =      0.700000     0.053045     0.004040     0.704040
	    6 R(2,Z)          =      0.000000     0.305444     0.019066     0.019066
	    7 R(3,X)          =      0.000000    -0.723123    -0.070262    -0.070262
	    8 R(3,Y)          =     -0.700000    -0.053045    -0.004040    -0.704040
	    9 R(3,Z)          =      0.000000     0.305444     0.019066     0.019066
	   10 *R(4,X)         =     -0.900000     0.000000     0.000000    -0.900000
	   11 *R(4,Y)         =     -0.800000     0.000000     0.000000    -0.800000
	   12 *R(4,Z)         =      0.500000     0.000000     0.000000     0.500000
	 ---------------------------------------------------------------------------
	Successfully symmetrized geometry.

  ==> Convergence Check <==

  Measures of convergence in internal coordinates in au.
  Criteria marked as inactive (o), active & met (*), and active & unmet ( ).
  --------------------------------------------------------------------------------------------- ~
   Step     Total Energy     Delta E     MAX Force     RMS Force      MAX Disp      RMS Disp    ~
  --------------------------------------------------------------------------------------------- ~
    Convergence Criteria    1.00e-06 *    3.00e-04 *             o    1.20e-03 *             o  ~
  --------------------------------------------------------------------------------------------- ~
      1    -150.76956269   -1.51e+02      8.78e-02      3.90e-02 o    1.33e-01      5.63e-02 o  ~
  ---------------------------------------------------------------------------------------------

	Writing optimization data to binary file.
	Structure for next step:
	Cartesian Geometry (in Angstrom)
	    H     0.9000000000   0.8000000000   0.5000000000
	    O     0.0702623119   0.7040400338   0.0190662431
	    O    -0.0702623119  -0.7040400338   0.0190662431
	    H    -0.9000000000  -0.8000000000   0.5000000000
			--------------------------
			 OPTKING Finished Execution 
			--------------------------

    Structure for next step:
    Molecular point group: c2
    Full point group: C2

    Geometry (in Angstrom), charge = 0, multiplicity = 1:

    H            0.900000000000     0.800000000000     0.500000000000
    O            0.070262311924     0.704040033770     0.019066243055
    O           -0.070262311924    -0.704040033770     0.019066243055
    H           -0.900000000000    -0.800000000000     0.500000000000

gradient() will perform analytic gradient computation.

*** tstart() called on psinet
*** at Mon May 15 15:37:58 2017

   => Loading Basis Set <=

    Name: CC-PVDZ
    Role: ORBITAL
    Keyword: BASIS
    atoms 1, 4 entry H          line    20 file /home/psilocaluser/gits/hrw-direct/objdir4/stage/usr/local/psi4/share/psi4/basis/cc-pvdz.gbs 
    atoms 2-3  entry O          line   190 file /home/psilocaluser/gits/hrw-direct/objdir4/stage/usr/local/psi4/share/psi4/basis/cc-pvdz.gbs 


         ---------------------------------------------------------
                                   SCF
            by Justin Turney, Rob Parrish, and Andy Simmonett
                              RHF Reference
                        1 Threads,    500 MiB Core
         ---------------------------------------------------------

  ==> Geometry <==

    Molecular point group: c2
    Full point group: C2

    Geometry (in Angstrom), charge = 0, multiplicity = 1:

       Center              X                  Y                   Z               Mass       
    ------------   -----------------  -----------------  -----------------  -----------------
           H          0.900000000000     0.800000000000     0.500000000000     1.007825032070
           O          0.070262311924     0.704040033770     0.019066243055    15.994914619560
           O         -0.070262311924    -0.704040033770     0.019066243055    15.994914619560
           H         -0.900000000000    -0.800000000000     0.500000000000     1.007825032070

  Running in c2 symmetry.

  Rotational constants: A =      9.75260  B =      0.92423  C =      0.89019 [cm^-1]
  Rotational constants: A = 292375.53901  B =  27707.71360  C =  26687.25201 [MHz]
  Nuclear repulsion =   37.505982455527068

  Charge       = 0
  Multiplicity = 1
  Electrons    = 18
  Nalpha       = 9
  Nbeta        = 9

  ==> Algorithm <==

  SCF Algorithm Type is DF.
  DIIS enabled.
  MOM disabled.
  Fractional occupation disabled.
  Guess Type is READ.
  Energy threshold   = 1.00e-08
  Density threshold  = 1.00e-08
  Integral threshold = 0.00e+00

  ==> Primary Basis <==

  Basis Set: CC-PVDZ
    Blend: CC-PVDZ
    Number of shells: 18
    Number of basis function: 38
    Number of Cartesian functions: 40
    Spherical Harmonics?: true
    Max angular momentum: 2

   => Loading Basis Set <=

    Name: (CC-PVDZ AUX)
    Role: JKFIT
    Keyword: DF_BASIS_SCF
    atoms 1, 4 entry H          line    50 file /home/psilocaluser/gits/hrw-direct/objdir4/stage/usr/local/psi4/share/psi4/basis/cc-pvdz-jkfit.gbs 
    atoms 2-3  entry O          line   220 file /home/psilocaluser/gits/hrw-direct/objdir4/stage/usr/local/psi4/share/psi4/basis/cc-pvdz-jkfit.gbs 

  Reading orbitals from file 180, no projection.

  ==> Pre-Iterations <==

   -------------------------------------------------------
    Irrep   Nso     Nmo     Nalpha   Nbeta   Ndocc  Nsocc
   -------------------------------------------------------
     A         19      19       0       0       0       0
     B         19      19       0       0       0       0
   -------------------------------------------------------
    Total      38      38       9       9       9       0
   -------------------------------------------------------

  ==> Integral Setup <==

  ==> DFJK: Density-Fitted J/K Matrices <==

    J tasked:                  Yes
    K tasked:                  Yes
    wK tasked:                  No
    OpenMP threads:              1
    Integrals threads:           1
    Memory (MB):               375
    Algorithm:                Core
    Integral Cache:           NONE
    Schwarz Cutoff:          1E-12
    Fitting Condition:       1E-12

   => Auxiliary Basis Set <=

  Basis Set: (CC-PVDZ AUX)
    Blend: CC-PVDZ-JKFIT
    Number of shells: 66
    Number of basis function: 186
    Number of Cartesian functions: 212
    Spherical Harmonics?: true
    Max angular momentum: 3

  Minimum eigenvalue in the overlap matrix is 2.3322858042E-02.
  Using Symmetric Orthogonalization.

  SCF Guess: Orbitals guess was supplied from a previous computation.

  ==> Iterations <==

                           Total Energy        Delta E     RMS |[F,P]|

   @DF-RHF iter   0:  -150.88139123721075   -1.50881e+02   1.02839e-02 
   @DF-RHF iter   1:  -150.78427309753033    9.71181e-02   1.52236e-03 
   @DF-RHF iter   2:  -150.78548166634161   -1.20857e-03   5.72752e-04 DIIS
   @DF-RHF iter   3:  -150.78567884840513   -1.97182e-04   2.61075e-04 DIIS
   @DF-RHF iter   4:  -150.78574925467123   -7.04063e-05   9.60360e-05 DIIS
   @DF-RHF iter   5:  -150.78576101202901   -1.17574e-05   3.44629e-05 DIIS
   @DF-RHF iter   6:  -150.78576311493759   -2.10291e-06   1.20049e-05 DIIS
   @DF-RHF iter   7:  -150.78576337956292   -2.64625e-07   2.55006e-06 DIIS
   @DF-RHF iter   8:  -150.78576338867546   -9.11254e-09   3.76662e-07 DIIS
   @DF-RHF iter   9:  -150.78576338882334   -1.47878e-10   7.09023e-08 DIIS
   @DF-RHF iter  10:  -150.78576338882709   -3.75167e-12   8.35469e-09 DIIS

  ==> Post-Iterations <==

    Orbital Energies (a.u.)
    -----------------------

    Doubly Occupied:                                                      

       1A    -20.619834     1B    -20.619515     2A     -1.485164  
       2B     -1.201031     3B     -0.709872     3A     -0.708439  
       4A     -0.609535     5A     -0.509408     4B     -0.466595  

    Virtual:                                                              

       6A      0.189368     5B      0.197587     6B      0.329080  
       7B      0.821331     7A      0.825869     8B      1.118707  
       8A      1.139668     9A      1.150071     9B      1.216773  
      10B      1.282365    10A      1.337448    11B      1.463938  
      11A      1.513879    12B      1.645608    12A      1.684584  
      13A      1.955556    13B      2.014761    14A      2.437791  
      14B      2.441659    15A      2.719269    16A      2.799270  
      15B      2.885525    17A      3.247925    16B      3.291570  
      17B      3.480611    18A      3.583184    18B      3.908975  
      19A      3.939765    19B      4.269597  

    Final Occupation by Irrep:
              A     B 
    DOCC [     5,    4 ]

  Energy converged.

  @DF-RHF Final Energy:  -150.78576338882709

   => Energetics <=

    Nuclear Repulsion Energy =             37.5059824555270680
    One-Electron Energy =                -282.7247038189830164
    Two-Electron Energy =                  94.4329579746288630
    DFT Exchange-Correlation Energy =       0.0000000000000000
    Empirical Dispersion Energy =           0.0000000000000000
    PCM Polarization Energy =               0.0000000000000000
    EFP Energy =                            0.0000000000000000
    Total Energy =                       -150.7857633888270925



Properties will be evaluated at   0.000000,   0.000000,   0.000000 Bohr

Properties computed using the SCF density matrix

  Nuclear Dipole Moment: (a.u.)
     X:     0.0000      Y:    -0.0000      Z:     2.4662

  Electronic Dipole Moment: (a.u.)
     X:     0.0000      Y:     0.0000      Z:    -1.7510

  Dipole Moment: (a.u.)
     X:     0.0000      Y:    -0.0000      Z:     0.7152     Total:     0.7152

  Dipole Moment: (Debye)
     X:     0.0000      Y:    -0.0000      Z:     1.8178     Total:     1.8178


*** tstop() called on psinet at Mon May 15 15:37:58 2017
Module time:
	user time   =       0.27 seconds =       0.00 minutes
	system time =       0.01 seconds =       0.00 minutes
	total time  =          0 seconds =       0.00 minutes
Total time:
	user time   =       1.03 seconds =       0.02 minutes
	system time =       0.05 seconds =       0.00 minutes
	total time  =          1 seconds =       0.02 minutes

*** tstart() called on psinet
*** at Mon May 15 15:37:58 2017


         ------------------------------------------------------------
                                   SCF GRAD                          
                          Rob Parrish, Justin Turney,                
                       Andy Simmonett, and Alex Sokolov              
         ------------------------------------------------------------

  ==> Geometry <==

    Molecular point group: c2
    Full point group: C2

    Geometry (in Angstrom), charge = 0, multiplicity = 1:

       Center              X                  Y                   Z               Mass       
    ------------   -----------------  -----------------  -----------------  -----------------
           H          0.900000000000     0.800000000000     0.500000000000     1.007825032070
           O          0.070262311924     0.704040033770     0.019066243055    15.994914619560
           O         -0.070262311924    -0.704040033770     0.019066243055    15.994914619560
           H         -0.900000000000    -0.800000000000     0.500000000000     1.007825032070

  Nuclear repulsion =   37.505982455527068

  ==> Basis Set <==

  Basis Set: CC-PVDZ
    Blend: CC-PVDZ
    Number of shells: 18
    Number of basis function: 38
    Number of Cartesian functions: 40
    Spherical Harmonics?: true
    Max angular momentum: 2

  ==> DFJKGrad: Density-Fitted SCF Gradients <==

    Gradient:                    1
    J tasked:                  Yes
    K tasked:                  Yes
    wK tasked:                  No
    OpenMP threads:              1
    Integrals threads:           1
    Memory (MB):               375
    Schwarz Cutoff:          0E+00
    Fitting Condition:       1E-12

   => Auxiliary Basis Set <=

  Basis Set: (CC-PVDZ AUX)
    Blend: CC-PVDZ-JKFIT
    Number of shells: 66
    Number of basis function: 186
    Number of Cartesian functions: 212
    Spherical Harmonics?: true
    Max angular momentum: 3


  -Total Gradient:
     Atom            X                  Y                   Z
    ------   -----------------  -----------------  -----------------
       1        0.014763340243    -0.000875234499     0.008731754305
       2       -0.016580000478     0.013170603246    -0.008731754305
       3        0.016580000478    -0.013170603246    -0.008731754305
       4       -0.014763340243     0.000875234499     0.008731754305


*** tstop() called on psinet at Mon May 15 15:37:59 2017
Module time:
	user time   =       0.22 seconds =       0.00 minutes
	system time =       0.01 seconds =       0.00 minutes
	total time  =          1 seconds =       0.02 minutes
Total time:
	user time   =       1.25 seconds =       0.02 minutes
	system time =       0.06 seconds =       0.00 minutes
	total time  =          2 seconds =       0.03 minutes

			-----------------------------------------
			 OPTKING 2.0: for geometry optimizations 
			  - R.A. King,  Bethel University        
			-----------------------------------------

	Previous internal coordinate definitions found.
	---Fragment 1 Geometry and Gradient---
	 H           1.7007535196        1.5117809063        0.9448630664
	 O           0.1327765270        1.3304428504        0.0360299778
	 O          -0.1327765270       -1.3304428504        0.0360299778
	 H          -1.7007535196       -1.5117809063        0.9448630664
	             0.0147633402       -0.0008752345        0.0087317543
	            -0.0165800005        0.0131706032       -0.0087317543
	             0.0165800005       -0.0131706032       -0.0087317543
	            -0.0147633402        0.0008752345        0.0087317543

	---Fragment 1 Intrafragment Coordinates---
	 - Coordinate -           - BOHR/RAD -       - ANG/DEG -
	*R(1,X)           =         1.700754	       0.900000
	*R(1,Y)           =         1.511781	       0.800000
	*R(1,Z)           =         0.944863	       0.500000
	 R(2,X)           =         0.132777	       0.070262
	 R(2,Y)           =         1.330443	       0.704040
	 R(2,Z)           =         0.036030	       0.019066
	 R(3,X)           =        -0.132777	      -0.070262
	 R(3,Y)           =        -1.330443	      -0.704040
	 R(3,Z)           =         0.036030	       0.019066
	*R(4,X)           =        -1.700754	      -0.900000
	*R(4,Y)           =        -1.511781	      -0.800000
	*R(4,Z)           =         0.944863	       0.500000

	Current energy   :      -150.7857633888

	Energy change for the previous step:
		Projected    :        -0.0252321451
		Actual       :        -0.0162007022

	Performing BFGS update.
	Previous computed or guess Hessian on step 1.
	Steps to be used in Hessian update: 1
	Taking RFO optimization step.
	Going to follow RFO solution 1.
	Using RFO vector 1.
	Norm of target step-size    0.07360
	Projected energy change by RFO approximation:        -0.0014216929

	Back-transformation to cartesian coordinates...
	Successfully converged to displaced geometry.

	Back-transformation to cartesian coordinates to adjust frozen coordinates...
	Successfully converged to displaced geometry.

	--- Internal Coordinate Step in ANG or DEG, aJ/ANG or AJ/DEG ---
	 ---------------------------------------------------------------------------
	   Coordinate                Previous        Force       Change         New 
	   ----------                --------       ------       ------       ------
	    1 *R(1,X)         =      0.900000     0.000000     0.000000     0.900000
	    2 *R(1,Y)         =      0.800000     0.000000     0.000000     0.800000
	    3 *R(1,Z)         =      0.500000     0.000000     0.000000     0.500000
	    4 R(2,X)          =      0.070262     0.136598     0.009612     0.079874
	    5 R(2,Y)          =      0.704040    -0.108509    -0.006135     0.697905
	    6 R(2,Z)          =      0.019066     0.071938     0.025070     0.044136
	    7 R(3,X)          =     -0.070262    -0.136598    -0.009612    -0.079874
	    8 R(3,Y)          =     -0.704040     0.108509     0.006135    -0.697905
	    9 R(3,Z)          =      0.019066     0.071938     0.025070     0.044136
	   10 *R(4,X)         =     -0.900000     0.000000     0.000000    -0.900000
	   11 *R(4,Y)         =     -0.800000     0.000000     0.000000    -0.800000
	   12 *R(4,Z)         =      0.500000     0.000000     0.000000     0.500000
	 ---------------------------------------------------------------------------
	Successfully symmetrized geometry.

  ==> Convergence Check <==

  Measures of convergence in internal coordinates in au.
  Criteria marked as inactive (o), active & met (*), and active & unmet ( ).
  ---------------------------------------------------------------------------------------------
   Step     Total Energy     Delta E     MAX Force     RMS Force      MAX Disp      RMS Disp   
  ---------------------------------------------------------------------------------------------
    Convergence Criteria    1.00e-06 *    3.00e-04 *             o    1.20e-03 *             o
  ---------------------------------------------------------------------------------------------
      2    -150.78576339   -1.62e-02      1.66e-02      9.35e-03 o    4.74e-02      2.12e-02 o  ~
  ---------------------------------------------------------------------------------------------

	Writing optimization data to binary file.
	Structure for next step:
	Cartesian Geometry (in Angstrom)
	    H     0.9000000000   0.8000000000   0.5000000000
	    O     0.0798743034   0.6979046258   0.0441361566
	    O    -0.0798743034  -0.6979046258   0.0441361566
	    H    -0.9000000000  -0.8000000000   0.5000000000
			--------------------------
			 OPTKING Finished Execution 
			--------------------------

    Structure for next step:
    Molecular point group: c2
    Full point group: C2

    Geometry (in Angstrom), charge = 0, multiplicity = 1:

    H            0.900000000000     0.800000000000     0.500000000000
    O            0.079874303449     0.697904625846     0.044136156550
    O           -0.079874303449    -0.697904625846     0.044136156550
    H           -0.900000000000    -0.800000000000     0.500000000000

gradient() will perform analytic gradient computation.

*** tstart() called on psinet
*** at Mon May 15 15:37:59 2017

   => Loading Basis Set <=

    Name: CC-PVDZ
    Role: ORBITAL
    Keyword: BASIS
    atoms 1, 4 entry H          line    20 file /home/psilocaluser/gits/hrw-direct/objdir4/stage/usr/local/psi4/share/psi4/basis/cc-pvdz.gbs 
    atoms 2-3  entry O          line   190 file /home/psilocaluser/gits/hrw-direct/objdir4/stage/usr/local/psi4/share/psi4/basis/cc-pvdz.gbs 


         ---------------------------------------------------------
                                   SCF
            by Justin Turney, Rob Parrish, and Andy Simmonett
                              RHF Reference
                        1 Threads,    500 MiB Core
         ---------------------------------------------------------

  ==> Geometry <==

    Molecular point group: c2
    Full point group: C2

    Geometry (in Angstrom), charge = 0, multiplicity = 1:

       Center              X                  Y                   Z               Mass       
    ------------   -----------------  -----------------  -----------------  -----------------
           H          0.900000000000     0.800000000000     0.500000000000     1.007825032070
           O          0.079874303449     0.697904625846     0.044136156550    15.994914619560
           O         -0.079874303449    -0.697904625846     0.044136156550    15.994914619560
           H         -0.900000000000    -0.800000000000     0.500000000000     1.007825032070

  Running in c2 symmetry.

  Rotational constants: A =      9.70696  B =      0.93116  C =      0.90109 [cm^-1]
  Rotational constants: A = 291007.20379  B =  27915.47504  C =  27013.91619 [MHz]
  Nuclear repulsion =   37.880457822473872

  Charge       = 0
  Multiplicity = 1
  Electrons    = 18
  Nalpha       = 9
  Nbeta        = 9

  ==> Algorithm <==

  SCF Algorithm Type is DF.
  DIIS enabled.
  MOM disabled.
  Fractional occupation disabled.
  Guess Type is READ.
  Energy threshold   = 1.00e-08
  Density threshold  = 1.00e-08
  Integral threshold = 0.00e+00

  ==> Primary Basis <==

  Basis Set: CC-PVDZ
    Blend: CC-PVDZ
    Number of shells: 18
    Number of basis function: 38
    Number of Cartesian functions: 40
    Spherical Harmonics?: true
    Max angular momentum: 2

   => Loading Basis Set <=

    Name: (CC-PVDZ AUX)
    Role: JKFIT
    Keyword: DF_BASIS_SCF
    atoms 1, 4 entry H          line    50 file /home/psilocaluser/gits/hrw-direct/objdir4/stage/usr/local/psi4/share/psi4/basis/cc-pvdz-jkfit.gbs 
    atoms 2-3  entry O          line   220 file /home/psilocaluser/gits/hrw-direct/objdir4/stage/usr/local/psi4/share/psi4/basis/cc-pvdz-jkfit.gbs 

  Reading orbitals from file 180, no projection.

  ==> Pre-Iterations <==

   -------------------------------------------------------
    Irrep   Nso     Nmo     Nalpha   Nbeta   Ndocc  Nsocc
   -------------------------------------------------------
     A         19      19       0       0       0       0
     B         19      19       0       0       0       0
   -------------------------------------------------------
    Total      38      38       9       9       9       0
   -------------------------------------------------------

  ==> Integral Setup <==

  ==> DFJK: Density-Fitted J/K Matrices <==

    J tasked:                  Yes
    K tasked:                  Yes
    wK tasked:                  No
    OpenMP threads:              1
    Integrals threads:           1
    Memory (MB):               375
    Algorithm:                Core
    Integral Cache:           NONE
    Schwarz Cutoff:          1E-12
    Fitting Condition:       1E-12

   => Auxiliary Basis Set <=

  Basis Set: (CC-PVDZ AUX)
    Blend: CC-PVDZ-JKFIT
    Number of shells: 66
    Number of basis function: 186
    Number of Cartesian functions: 212
    Spherical Harmonics?: true
    Max angular momentum: 3

  Minimum eigenvalue in the overlap matrix is 2.2533232832E-02.
  Using Symmetric Orthogonalization.

  SCF Guess: Orbitals guess was supplied from a previous computation.

  ==> Iterations <==

                           Total Energy        Delta E     RMS |[F,P]|

   @DF-RHF iter   0:  -150.82099561339487   -1.50821e+02   2.98088e-03 
   @DF-RHF iter   1:  -150.78642870991925    3.45669e-02   3.91290e-04 
   @DF-RHF iter   2:  -150.78649835488881   -6.96450e-05   1.42278e-04 DIIS
   @DF-RHF iter   3:  -150.78650892761979   -1.05727e-05   6.01784e-05 DIIS
   @DF-RHF iter   4:  -150.78651233717628   -3.40956e-06   2.15232e-05 DIIS
   @DF-RHF iter   5:  -150.78651291141691   -5.74241e-07   6.59171e-06 DIIS
   @DF-RHF iter   6:  -150.78651298004857   -6.86317e-08   2.37228e-06 DIIS
   @DF-RHF iter   7:  -150.78651299027891   -1.02303e-08   6.45588e-07 DIIS
   @DF-RHF iter   8:  -150.78651299100019   -7.21286e-10   1.08443e-07 DIIS
   @DF-RHF iter   9:  -150.78651299101429   -1.40972e-11   2.83126e-08 DIIS
   @DF-RHF iter  10:  -150.78651299101526   -9.66338e-13   5.32540e-09 DIIS

  ==> Post-Iterations <==

    Orbital Energies (a.u.)
    -----------------------

    Doubly Occupied:                                                      

       1A    -20.617396     1B    -20.617070     2A     -1.493421  
       2B     -1.207996     3A     -0.718001     3B     -0.714272  
       4A     -0.614217     5A     -0.510642     4B     -0.464855  

    Virtual:                                                              

       6A      0.193355     5B      0.200184     6B      0.338146  
       7B      0.836101     7A      0.845589     8B      1.118064  
       8A      1.137125     9A      1.151734     9B      1.220921  
      10B      1.279125    10A      1.336729    11B      1.473310  
      11A      1.518602    12B      1.648760    12A      1.690888  
      13A      1.953328    13B      2.018508    14A      2.483474  
      14B      2.491104    15A      2.711635    16A      2.809955  
      15B      2.894940    17A      3.267538    16B      3.308927  
      17B      3.496887    18A      3.606659    18B      3.929401  
      19A      3.967274    19B      4.281985  

    Final Occupation by Irrep:
              A     B 
    DOCC [     5,    4 ]

  Energy converged.

  @DF-RHF Final Energy:  -150.78651299101526

   => Energetics <=

    Nuclear Repulsion Energy =             37.8804578224738719
    One-Electron Energy =                -283.4182014481116312
    Two-Electron Energy =                  94.7512306346224875
    DFT Exchange-Correlation Energy =       0.0000000000000000
    Empirical Dispersion Energy =           0.0000000000000000
    PCM Polarization Energy =               0.0000000000000000
    EFP Energy =                            0.0000000000000000
    Total Energy =                       -150.7865129910152575



Properties will be evaluated at   0.000000,   0.000000,   0.000000 Bohr

Properties computed using the SCF density matrix

  Nuclear Dipole Moment: (a.u.)
     X:    -0.0000      Y:    -0.0000      Z:     3.2242

  Electronic Dipole Moment: (a.u.)
     X:     0.0000      Y:     0.0000      Z:    -2.5383

  Dipole Moment: (a.u.)
     X:    -0.0000      Y:    -0.0000      Z:     0.6860     Total:     0.6860

  Dipole Moment: (Debye)
     X:    -0.0000      Y:    -0.0000      Z:     1.7435     Total:     1.7435


*** tstop() called on psinet at Mon May 15 15:37:59 2017
Module time:
	user time   =       0.26 seconds =       0.00 minutes
	system time =       0.01 seconds =       0.00 minutes
	total time  =          0 seconds =       0.00 minutes
Total time:
	user time   =       1.53 seconds =       0.03 minutes
	system time =       0.07 seconds =       0.00 minutes
	total time  =          2 seconds =       0.03 minutes

*** tstart() called on psinet
*** at Mon May 15 15:37:59 2017


         ------------------------------------------------------------
                                   SCF GRAD                          
                          Rob Parrish, Justin Turney,                
                       Andy Simmonett, and Alex Sokolov              
         ------------------------------------------------------------

  ==> Geometry <==

    Molecular point group: c2
    Full point group: C2

    Geometry (in Angstrom), charge = 0, multiplicity = 1:

       Center              X                  Y                   Z               Mass       
    ------------   -----------------  -----------------  -----------------  -----------------
           H          0.900000000000     0.800000000000     0.500000000000     1.007825032070
           O          0.079874303449     0.697904625846     0.044136156550    15.994914619560
           O         -0.079874303449    -0.697904625846     0.044136156550    15.994914619560
           H         -0.900000000000    -0.800000000000     0.500000000000     1.007825032070

  Nuclear repulsion =   37.880457822473872

  ==> Basis Set <==

  Basis Set: CC-PVDZ
    Blend: CC-PVDZ
    Number of shells: 18
    Number of basis function: 38
    Number of Cartesian functions: 40
    Spherical Harmonics?: true
    Max angular momentum: 2

  ==> DFJKGrad: Density-Fitted SCF Gradients <==

    Gradient:                    1
    J tasked:                  Yes
    K tasked:                  Yes
    wK tasked:                  No
    OpenMP threads:              1
    Integrals threads:           1
    Memory (MB):               375
    Schwarz Cutoff:          0E+00
    Fitting Condition:       1E-12

   => Auxiliary Basis Set <=

  Basis Set: (CC-PVDZ AUX)
    Blend: CC-PVDZ-JKFIT
    Number of shells: 66
    Number of basis function: 186
    Number of Cartesian functions: 212
    Spherical Harmonics?: true
    Max angular momentum: 3


  -Total Gradient:
     Atom            X                  Y                   Z
    ------   -----------------  -----------------  -----------------
       1       -0.004231956307    -0.000241517665    -0.002725605321
       2        0.005501931582     0.008408491174     0.002725605322
       3       -0.005501931582    -0.008408491174     0.002725605322
       4        0.004231956307     0.000241517665    -0.002725605321


*** tstop() called on psinet at Mon May 15 15:37:59 2017
Module time:
	user time   =       0.22 seconds =       0.00 minutes
	system time =       0.01 seconds =       0.00 minutes
	total time  =          0 seconds =       0.00 minutes
Total time:
	user time   =       1.75 seconds =       0.03 minutes
	system time =       0.08 seconds =       0.00 minutes
	total time  =          2 seconds =       0.03 minutes

			-----------------------------------------
			 OPTKING 2.0: for geometry optimizations 
			  - R.A. King,  Bethel University        
			-----------------------------------------

	Previous internal coordinate definitions found.
	---Fragment 1 Geometry and Gradient---
	 H           1.7007535196        1.5117809063        0.9448630664
	 O           0.1509405586        1.3188486097        0.0834052484
	 O          -0.1509405586       -1.3188486097        0.0834052484
	 H          -1.7007535196       -1.5117809063        0.9448630664
	            -0.0042319563       -0.0002415177       -0.0027256053
	             0.0055019316        0.0084084912        0.0027256053
	            -0.0055019316       -0.0084084912        0.0027256053
	             0.0042319563        0.0002415177       -0.0027256053

	---Fragment 1 Intrafragment Coordinates---
	 - Coordinate -           - BOHR/RAD -       - ANG/DEG -
	*R(1,X)           =         1.700754	       0.900000
	*R(1,Y)           =         1.511781	       0.800000
	*R(1,Z)           =         0.944863	       0.500000
	 R(2,X)           =         0.150941	       0.079874
	 R(2,Y)           =         1.318849	       0.697905
	 R(2,Z)           =         0.083405	       0.044136
	 R(3,X)           =        -0.150941	      -0.079874
	 R(3,Y)           =        -1.318849	      -0.697905
	 R(3,Z)           =         0.083405	       0.044136
	*R(4,X)           =        -1.700754	      -0.900000
	*R(4,Y)           =        -1.511781	      -0.800000
	*R(4,Z)           =         0.944863	       0.500000

	Current energy   :      -150.7865129910

	Energy change for the previous step:
		Projected    :        -0.0014216929
		Actual       :        -0.0007496022

	Performing BFGS update.
	Previous computed or guess Hessian on step 1.
	Steps to be used in Hessian update: 2 1
	Taking RFO optimization step.
	Going to follow RFO solution 1.
	Using RFO vector 1.
	Norm of target step-size    0.01618
	Projected energy change by RFO approximation:        -0.0002297808

	Back-transformation to cartesian coordinates...
	Successfully converged to displaced geometry.

	Back-transformation to cartesian coordinates to adjust frozen coordinates...
	Successfully converged to displaced geometry.

	--- Internal Coordinate Step in ANG or DEG, aJ/ANG or AJ/DEG ---
	 ---------------------------------------------------------------------------
	   Coordinate                Previous        Force       Change         New 
	   ----------                --------       ------       ------       ------
	    1 *R(1,X)         =      0.900000     0.000000     0.000000     0.900000
	    2 *R(1,Y)         =      0.800000     0.000000     0.000000     0.800000
	    3 *R(1,Z)         =      0.500000     0.000000     0.000000     0.500000
	    4 R(2,X)          =      0.079874    -0.045329    -0.003848     0.076026
	    5 R(2,Y)          =      0.697905    -0.069275    -0.003206     0.694698
	    6 R(2,Z)          =      0.044136    -0.022456    -0.003403     0.040733
	    7 R(3,X)          =     -0.079874     0.045329     0.003848    -0.076026
	    8 R(3,Y)          =     -0.697905     0.069275     0.003206    -0.694698
	    9 R(3,Z)          =      0.044136    -0.022456    -0.003403     0.040733
	   10 *R(4,X)         =     -0.900000     0.000000     0.000000    -0.900000
	   11 *R(4,Y)         =     -0.800000     0.000000     0.000000    -0.800000
	   12 *R(4,Z)         =      0.500000     0.000000     0.000000     0.500000
	 ---------------------------------------------------------------------------
	Successfully symmetrized geometry.

  ==> Convergence Check <==

  Measures of convergence in internal coordinates in au.
  Criteria marked as inactive (o), active & met (*), and active & unmet ( ).
  ---------------------------------------------------------------------------------------------
   Step     Total Energy     Delta E     MAX Force     RMS Force      MAX Disp      RMS Disp   
  ---------------------------------------------------------------------------------------------
    Convergence Criteria    1.00e-06 *    3.00e-04 *             o    1.20e-03 *             o
  ---------------------------------------------------------------------------------------------
      3    -150.78651299   -7.50e-04      8.41e-03      4.25e-03 o    7.27e-03      4.67e-03 o  ~
  ---------------------------------------------------------------------------------------------

	Writing optimization data to binary file.
	Structure for next step:
	Cartesian Geometry (in Angstrom)
	    H     0.9000000000   0.8000000000   0.5000000000
	    O     0.0760264145   0.6946983785   0.0407328951
	    O    -0.0760264145  -0.6946983785   0.0407328951
	    H    -0.9000000000  -0.8000000000   0.5000000000
			--------------------------
			 OPTKING Finished Execution 
			--------------------------

    Structure for next step:
    Molecular point group: c2
    Full point group: C2

    Geometry (in Angstrom), charge = 0, multiplicity = 1:

    H            0.900000000000     0.800000000000     0.500000000000
    O            0.076026414529     0.694698378535     0.040732895073
    O           -0.076026414529    -0.694698378535     0.040732895073
    H           -0.900000000000    -0.800000000000     0.500000000000

gradient() will perform analytic gradient computation.

*** tstart() called on psinet
*** at Mon May 15 15:37:59 2017

   => Loading Basis Set <=

    Name: CC-PVDZ
    Role: ORBITAL
    Keyword: BASIS
    atoms 1, 4 entry H          line    20 file /home/psilocaluser/gits/hrw-direct/objdir4/stage/usr/local/psi4/share/psi4/basis/cc-pvdz.gbs 
    atoms 2-3  entry O          line   190 file /home/psilocaluser/gits/hrw-direct/objdir4/stage/usr/local/psi4/share/psi4/basis/cc-pvdz.gbs 


         ---------------------------------------------------------
                                   SCF
            by Justin Turney, Rob Parrish, and Andy Simmonett
                              RHF Reference
                        1 Threads,    500 MiB Core
         ---------------------------------------------------------

  ==> Geometry <==

    Molecular point group: c2
    Full point group: C2

    Geometry (in Angstrom), charge = 0, multiplicity = 1:

       Center              X                  Y                   Z               Mass       
    ------------   -----------------  -----------------  -----------------  -----------------
           H          0.900000000000     0.800000000000     0.500000000000     1.007825032070
           O          0.076026414529     0.694698378535     0.040732895073    15.994914619560
           O         -0.076026414529    -0.694698378535     0.040732895073    15.994914619560
           H         -0.900000000000    -0.800000000000     0.500000000000     1.007825032070

  Running in c2 symmetry.

  Rotational constants: A =      9.68833  B =      0.94071  C =      0.90896 [cm^-1]
  Rotational constants: A = 290448.97500  B =  28201.86162  C =  27249.92052 [MHz]
  Nuclear repulsion =   37.964121372721984

  Charge       = 0
  Multiplicity = 1
  Electrons    = 18
  Nalpha       = 9
  Nbeta        = 9

  ==> Algorithm <==

  SCF Algorithm Type is DF.
  DIIS enabled.
  MOM disabled.
  Fractional occupation disabled.
  Guess Type is READ.
  Energy threshold   = 1.00e-08
  Density threshold  = 1.00e-08
  Integral threshold = 0.00e+00

  ==> Primary Basis <==

  Basis Set: CC-PVDZ
    Blend: CC-PVDZ
    Number of shells: 18
    Number of basis function: 38
    Number of Cartesian functions: 40
    Spherical Harmonics?: true
    Max angular momentum: 2

   => Loading Basis Set <=

    Name: (CC-PVDZ AUX)
    Role: JKFIT
    Keyword: DF_BASIS_SCF
    atoms 1, 4 entry H          line    50 file /home/psilocaluser/gits/hrw-direct/objdir4/stage/usr/local/psi4/share/psi4/basis/cc-pvdz-jkfit.gbs 
    atoms 2-3  entry O          line   220 file /home/psilocaluser/gits/hrw-direct/objdir4/stage/usr/local/psi4/share/psi4/basis/cc-pvdz-jkfit.gbs 

  Reading orbitals from file 180, no projection.

  ==> Pre-Iterations <==

   -------------------------------------------------------
    Irrep   Nso     Nmo     Nalpha   Nbeta   Ndocc  Nsocc
   -------------------------------------------------------
     A         19      19       0       0       0       0
     B         19      19       0       0       0       0
   -------------------------------------------------------
    Total      38      38       9       9       9       0
   -------------------------------------------------------

  ==> Integral Setup <==

  ==> DFJK: Density-Fitted J/K Matrices <==

    J tasked:                  Yes
    K tasked:                  Yes
    wK tasked:                  No
    OpenMP threads:              1
    Integrals threads:           1
    Memory (MB):               375
    Algorithm:                Core
    Integral Cache:           NONE
    Schwarz Cutoff:          1E-12
    Fitting Condition:       1E-12

   => Auxiliary Basis Set <=

  Basis Set: (CC-PVDZ AUX)
    Blend: CC-PVDZ-JKFIT
    Number of shells: 66
    Number of basis function: 186
    Number of Cartesian functions: 212
    Spherical Harmonics?: true
    Max angular momentum: 3

  Minimum eigenvalue in the overlap matrix is 2.2249085536E-02.
  Using Symmetric Orthogonalization.

  SCF Guess: Orbitals guess was supplied from a previous computation.

  ==> Iterations <==

                           Total Energy        Delta E     RMS |[F,P]|

   @DF-RHF iter   0:  -150.78206326399354   -1.50782e+02   1.14132e-03 
   @DF-RHF iter   1:  -150.78661445748989   -4.55119e-03   1.38132e-04 
   @DF-RHF iter   2:  -150.78662147540723   -7.01792e-06   4.32746e-05 DIIS
   @DF-RHF iter   3:  -150.78662218357817   -7.08171e-07   1.47090e-05 DIIS
   @DF-RHF iter   4:  -150.78662235298762   -1.69409e-07   6.04794e-06 DIIS
   @DF-RHF iter   5:  -150.78662239229720   -3.93096e-08   2.41879e-06 DIIS
   @DF-RHF iter   6:  -150.78662240252902   -1.02318e-08   6.20614e-07 DIIS
   @DF-RHF iter   7:  -150.78662240321728   -6.88260e-10   1.69895e-07 DIIS
   @DF-RHF iter   8:  -150.78662240326003   -4.27463e-11   3.36780e-08 DIIS
   @DF-RHF iter   9:  -150.78662240326128   -1.25056e-12   6.63994e-09 DIIS

  ==> Post-Iterations <==

    Orbital Energies (a.u.)
    -----------------------

    Doubly Occupied:                                                      

       1A    -20.616917     1B    -20.616584     2A     -1.495827  
       2B     -1.203995     3A     -0.717692     3B     -0.714549  
       4A     -0.615650     5A     -0.509240     4B     -0.462985  

    Virtual:                                                              

       6A      0.192584     5B      0.200530     6B      0.343330  
       7B      0.832041     7A      0.840771     8B      1.118449  
       8A      1.136177     9A      1.151887     9B      1.220272  
      10B      1.280573    10A      1.335198    11B      1.470653  
      11A      1.517494    12B      1.648787    12A      1.690519  
      13A      1.954402    13B      2.019481    14A      2.473107  
      14B      2.478826    15A      2.706642    16A      2.820290  
      15B      2.887838    17A      3.261051    16B      3.304589  
      17B      3.505264    18A      3.611244    18B      3.926755  
      19A      3.960864    19B      4.285922  

    Final Occupation by Irrep:
              A     B 
    DOCC [     5,    4 ]

  Energy converged.

  @DF-RHF Final Energy:  -150.78662240326128

   => Energetics <=

    Nuclear Repulsion Energy =             37.9641213727219835
    One-Electron Energy =                -283.5946084954249500
    Two-Electron Energy =                  94.8438647194416689
    DFT Exchange-Correlation Energy =       0.0000000000000000
    Empirical Dispersion Energy =           0.0000000000000000
    PCM Polarization Energy =               0.0000000000000000
    EFP Energy =                            0.0000000000000000
    Total Energy =                       -150.7866224032612763



Properties will be evaluated at   0.000000,   0.000000,   0.000000 Bohr

Properties computed using the SCF density matrix

  Nuclear Dipole Moment: (a.u.)
     X:     0.0000      Y:    -0.0000      Z:     3.1213

  Electronic Dipole Moment: (a.u.)
     X:     0.0000      Y:     0.0000      Z:    -2.4323

  Dipole Moment: (a.u.)
     X:     0.0000      Y:    -0.0000      Z:     0.6890     Total:     0.6890

  Dipole Moment: (Debye)
     X:     0.0000      Y:    -0.0000      Z:     1.7512     Total:     1.7512


*** tstop() called on psinet at Mon May 15 15:38:00 2017
Module time:
	user time   =       0.26 seconds =       0.00 minutes
	system time =       0.02 seconds =       0.00 minutes
	total time  =          1 seconds =       0.02 minutes
Total time:
	user time   =       2.03 seconds =       0.03 minutes
	system time =       0.10 seconds =       0.00 minutes
	total time  =          3 seconds =       0.05 minutes

*** tstart() called on psinet
*** at Mon May 15 15:38:00 2017


         ------------------------------------------------------------
                                   SCF GRAD                          
                          Rob Parrish, Justin Turney,                
                       Andy Simmonett, and Alex Sokolov              
         ------------------------------------------------------------

  ==> Geometry <==

    Molecular point group: c2
    Full point group: C2

    Geometry (in Angstrom), charge = 0, multiplicity = 1:

       Center              X                  Y                   Z               Mass       
    ------------   -----------------  -----------------  -----------------  -----------------
           H          0.900000000000     0.800000000000     0.500000000000     1.007825032070
           O          0.076026414529     0.694698378535     0.040732895073    15.994914619560
           O         -0.076026414529    -0.694698378535     0.040732895073    15.994914619560
           H         -0.900000000000    -0.800000000000     0.500000000000     1.007825032070

  Nuclear repulsion =   37.964121372721976

  ==> Basis Set <==

  Basis Set: CC-PVDZ
    Blend: CC-PVDZ
    Number of shells: 18
    Number of basis function: 38
    Number of Cartesian functions: 40
    Spherical Harmonics?: true
    Max angular momentum: 2

  ==> DFJKGrad: Density-Fitted SCF Gradients <==

    Gradient:                    1
    J tasked:                  Yes
    K tasked:                  Yes
    wK tasked:                  No
    OpenMP threads:              1
    Integrals threads:           1
    Memory (MB):               375
    Schwarz Cutoff:          0E+00
    Fitting Condition:       1E-12

   => Auxiliary Basis Set <=

  Basis Set: (CC-PVDZ AUX)
    Blend: CC-PVDZ-JKFIT
    Number of shells: 66
    Number of basis function: 186
    Number of Cartesian functions: 212
    Spherical Harmonics?: true
    Max angular momentum: 3


  -Total Gradient:
     Atom            X                  Y                   Z
    ------   -----------------  -----------------  -----------------
       1        0.001312819102    -0.000416999880     0.000390033166
       2       -0.001756692647     0.002698838009    -0.000390033166
       3        0.001756692647    -0.002698838009    -0.000390033166
       4       -0.001312819102     0.000416999880     0.000390033166


*** tstop() called on psinet at Mon May 15 15:38:00 2017
Module time:
	user time   =       0.22 seconds =       0.00 minutes
	system time =       0.01 seconds =       0.00 minutes
	total time  =          0 seconds =       0.00 minutes
Total time:
	user time   =       2.25 seconds =       0.04 minutes
	system time =       0.11 seconds =       0.00 minutes
	total time  =          3 seconds =       0.05 minutes

			-----------------------------------------
			 OPTKING 2.0: for geometry optimizations 
			  - R.A. King,  Bethel University        
			-----------------------------------------

	Previous internal coordinate definitions found.
	---Fragment 1 Geometry and Gradient---
	 H           1.7007535196        1.5117809063        0.9448630664
	 O           0.1436691023        1.3127896804        0.0769740163
	 O          -0.1436691023       -1.3127896804        0.0769740163
	 H          -1.7007535196       -1.5117809063        0.9448630664
	             0.0013128191       -0.0004169999        0.0003900332
	            -0.0017566926        0.0026988380       -0.0003900332
	             0.0017566926       -0.0026988380       -0.0003900332
	            -0.0013128191        0.0004169999        0.0003900332

	---Fragment 1 Intrafragment Coordinates---
	 - Coordinate -           - BOHR/RAD -       - ANG/DEG -
	*R(1,X)           =         1.700754	       0.900000
	*R(1,Y)           =         1.511781	       0.800000
	*R(1,Z)           =         0.944863	       0.500000
	 R(2,X)           =         0.143669	       0.076026
	 R(2,Y)           =         1.312790	       0.694698
	 R(2,Z)           =         0.076974	       0.040733
	 R(3,X)           =        -0.143669	      -0.076026
	 R(3,Y)           =        -1.312790	      -0.694698
	 R(3,Z)           =         0.076974	       0.040733
	*R(4,X)           =        -1.700754	      -0.900000
	*R(4,Y)           =        -1.511781	      -0.800000
	*R(4,Z)           =         0.944863	       0.500000

	Current energy   :      -150.7866224033

	Energy change for the previous step:
		Projected    :        -0.0002297808
		Actual       :        -0.0001094122

	Performing BFGS update.
	Previous computed or guess Hessian on step 1.
	Steps to be used in Hessian update: 3 2
	Taking RFO optimization step.
	Going to follow RFO solution 1.
	Using RFO vector 1.
	Norm of target step-size    0.01037
	Projected energy change by RFO approximation:        -0.0000505000

	Back-transformation to cartesian coordinates...
	Successfully converged to displaced geometry.

	Back-transformation to cartesian coordinates to adjust frozen coordinates...
	Successfully converged to displaced geometry.

	--- Internal Coordinate Step in ANG or DEG, aJ/ANG or AJ/DEG ---
	 ---------------------------------------------------------------------------
	   Coordinate                Previous        Force       Change         New 
	   ----------                --------       ------       ------       ------
	    1 *R(1,X)         =      0.900000     0.000000     0.000000     0.900000
	    2 *R(1,Y)         =      0.800000     0.000000     0.000000     0.800000
	    3 *R(1,Z)         =      0.500000     0.000000     0.000000     0.500000
	    4 R(2,X)          =      0.076026     0.014473     0.002603     0.078629
	    5 R(2,Y)          =      0.694698    -0.022235    -0.002082     0.692616
	    6 R(2,Z)          =      0.040733     0.003213    -0.001989     0.038744
	    7 R(3,X)          =     -0.076026    -0.014473    -0.002603    -0.078629
	    8 R(3,Y)          =     -0.694698     0.022235     0.002082    -0.692616
	    9 R(3,Z)          =      0.040733     0.003213    -0.001989     0.038744
	   10 *R(4,X)         =     -0.900000     0.000000     0.000000    -0.900000
	   11 *R(4,Y)         =     -0.800000     0.000000     0.000000    -0.800000
	   12 *R(4,Z)         =      0.500000     0.000000     0.000000     0.500000
	 ---------------------------------------------------------------------------
	Successfully symmetrized geometry.

  ==> Convergence Check <==

  Measures of convergence in internal coordinates in au.
  Criteria marked as inactive (o), active & met (*), and active & unmet ( ).
  ---------------------------------------------------------------------------------------------
   Step     Total Energy     Delta E     MAX Force     RMS Force      MAX Disp      RMS Disp   
  ---------------------------------------------------------------------------------------------
    Convergence Criteria    1.00e-06 *    3.00e-04 *             o    1.20e-03 *             o
  ---------------------------------------------------------------------------------------------
      4    -150.78662240   -1.09e-04      2.70e-03      1.32e-03 o    4.92e-03      2.99e-03 o  ~
  ---------------------------------------------------------------------------------------------

	Writing optimization data to binary file.
	Structure for next step:
	Cartesian Geometry (in Angstrom)
	    H     0.9000000000   0.8000000000   0.5000000000
	    O     0.0786289744   0.6926163052   0.0387437536
	    O    -0.0786289744  -0.6926163052   0.0387437536
	    H    -0.9000000000  -0.8000000000   0.5000000000
			--------------------------
			 OPTKING Finished Execution 
			--------------------------

    Structure for next step:
    Molecular point group: c2
    Full point group: C2

    Geometry (in Angstrom), charge = 0, multiplicity = 1:

    H            0.900000000000     0.800000000000     0.500000000000
    O            0.078628974352     0.692616305185     0.038743753593
    O           -0.078628974352    -0.692616305185     0.038743753593
    H           -0.900000000000    -0.800000000000     0.500000000000

gradient() will perform analytic gradient computation.

*** tstart() called on psinet
*** at Mon May 15 15:38:00 2017

   => Loading Basis Set <=

    Name: CC-PVDZ
    Role: ORBITAL
    Keyword: BASIS
    atoms 1, 4 entry H          line    20 file /home/psilocaluser/gits/hrw-direct/objdir4/stage/usr/local/psi4/share/psi4/basis/cc-pvdz.gbs 
    atoms 2-3  entry O          line   190 file /home/psilocaluser/gits/hrw-direct/objdir4/stage/usr/local/psi4/share/psi4/basis/cc-pvdz.gbs 


         ---------------------------------------------------------
                                   SCF
            by Justin Turney, Rob Parrish, and Andy Simmonett
                              RHF Reference
                        1 Threads,    500 MiB Core
         ---------------------------------------------------------

  ==> Geometry <==

    Molecular point group: c2
    Full point group: C2

    Geometry (in Angstrom), charge = 0, multiplicity = 1:

       Center              X                  Y                   Z               Mass       
    ------------   -----------------  -----------------  -----------------  -----------------
           H          0.900000000000     0.800000000000     0.500000000000     1.007825032070
           O          0.078628974352     0.692616305185     0.038743753593    15.994914619560
           O         -0.078628974352    -0.692616305185     0.038743753593    15.994914619560
           H         -0.900000000000    -0.800000000000     0.500000000000     1.007825032070

  Running in c2 symmetry.

  Rotational constants: A =      9.78407  B =      0.94454  C =      0.91287 [cm^-1]
  Rotational constants: A = 293319.14521  B =  28316.60498  C =  27367.27266 [MHz]
  Nuclear repulsion =   38.035514366582461

  Charge       = 0
  Multiplicity = 1
  Electrons    = 18
  Nalpha       = 9
  Nbeta        = 9

  ==> Algorithm <==

  SCF Algorithm Type is DF.
  DIIS enabled.
  MOM disabled.
  Fractional occupation disabled.
  Guess Type is READ.
  Energy threshold   = 1.00e-08
  Density threshold  = 1.00e-08
  Integral threshold = 0.00e+00

  ==> Primary Basis <==

  Basis Set: CC-PVDZ
    Blend: CC-PVDZ
    Number of shells: 18
    Number of basis function: 38
    Number of Cartesian functions: 40
    Spherical Harmonics?: true
    Max angular momentum: 2

   => Loading Basis Set <=

    Name: (CC-PVDZ AUX)
    Role: JKFIT
    Keyword: DF_BASIS_SCF
    atoms 1, 4 entry H          line    50 file /home/psilocaluser/gits/hrw-direct/objdir4/stage/usr/local/psi4/share/psi4/basis/cc-pvdz-jkfit.gbs 
    atoms 2-3  entry O          line   220 file /home/psilocaluser/gits/hrw-direct/objdir4/stage/usr/local/psi4/share/psi4/basis/cc-pvdz-jkfit.gbs 

  Reading orbitals from file 180, no projection.

  ==> Pre-Iterations <==

   -------------------------------------------------------
    Irrep   Nso     Nmo     Nalpha   Nbeta   Ndocc  Nsocc
   -------------------------------------------------------
     A         19      19       0       0       0       0
     B         19      19       0       0       0       0
   -------------------------------------------------------
    Total      38      38       9       9       9       0
   -------------------------------------------------------

  ==> Integral Setup <==

  ==> DFJK: Density-Fitted J/K Matrices <==

    J tasked:                  Yes
    K tasked:                  Yes
    wK tasked:                  No
    OpenMP threads:              1
    Integrals threads:           1
    Memory (MB):               375
    Algorithm:                Core
    Integral Cache:           NONE
    Schwarz Cutoff:          1E-12
    Fitting Condition:       1E-12

   => Auxiliary Basis Set <=

  Basis Set: (CC-PVDZ AUX)
    Blend: CC-PVDZ-JKFIT
    Number of shells: 66
    Number of basis function: 186
    Number of Cartesian functions: 212
    Spherical Harmonics?: true
    Max angular momentum: 3

  Minimum eigenvalue in the overlap matrix is 2.2084918652E-02.
  Using Symmetric Orthogonalization.

  SCF Guess: Orbitals guess was supplied from a previous computation.

  ==> Iterations <==

                           Total Energy        Delta E     RMS |[F,P]|

   @DF-RHF iter   0:  -150.79006004439918   -1.50790e+02   4.32869e-04 
   @DF-RHF iter   1:  -150.78664015142587    3.41989e-03   7.10406e-05 
   @DF-RHF iter   2:  -150.78664276230108   -2.61088e-06   2.30525e-05 DIIS
   @DF-RHF iter   3:  -150.78664326403504   -5.01734e-07   9.87316e-06 DIIS
   @DF-RHF iter   4:  -150.78664337645441   -1.12419e-07   2.55118e-06 DIIS
   @DF-RHF iter   5:  -150.78664338326723   -6.81283e-09   1.20216e-06 DIIS
   @DF-RHF iter   6:  -150.78664338519613   -1.92890e-09   4.91631e-07 DIIS
   @DF-RHF iter   7:  -150.78664338563141   -4.35278e-10   8.37986e-08 DIIS
   @DF-RHF iter   8:  -150.78664338564127   -9.86233e-12   1.30119e-08 DIIS
   @DF-RHF iter   9:  -150.78664338564136   -8.52651e-14   3.92560e-09 DIIS

  ==> Post-Iterations <==

    Orbital Energies (a.u.)
    -----------------------

    Doubly Occupied:                                                      

       1A    -20.616454     1B    -20.616117     2A     -1.497511  
       2B     -1.203845     3A     -0.719787     3B     -0.714565  
       4A     -0.616540     5A     -0.508273     4B     -0.462640  

    Virtual:                                                              

       6A      0.192825     5B      0.200752     6B      0.346393  
       7B      0.832655     7A      0.842019     8B      1.118753  
       8A      1.136761     9A      1.152280     9B      1.220641  
      10B      1.280589    10A      1.334120    11B      1.472007  
      11A      1.517130    12B      1.649883    12A      1.690252  
      13A      1.953904    13B      2.020016    14A      2.476759  
      14B      2.481312    15A      2.705953    16A      2.825383  
      15B      2.884679    17A      3.260055    16B      3.306559  
      17B      3.511354    18A      3.614735    18B      3.928876  
      19A      3.964235    19B      4.287172  

    Final Occupation by Irrep:
              A     B 
    DOCC [     5,    4 ]

  Energy converged.

  @DF-RHF Final Energy:  -150.78664338564136

   => Energetics <=

    Nuclear Repulsion Energy =             38.0355143665824613
    One-Electron Energy =                -283.7328504954082291
    Two-Electron Energy =                  94.9106927431844127
    DFT Exchange-Correlation Energy =       0.0000000000000000
    Empirical Dispersion Energy =           0.0000000000000000
    PCM Polarization Energy =               0.0000000000000000
    EFP Energy =                            0.0000000000000000
    Total Energy =                       -150.7866433856413551



Properties will be evaluated at   0.000000,   0.000000,   0.000000 Bohr

Properties computed using the SCF density matrix

  Nuclear Dipole Moment: (a.u.)
     X:     0.0000      Y:    -0.0000      Z:     3.0612

  Electronic Dipole Moment: (a.u.)
     X:     0.0000      Y:     0.0000      Z:    -2.3685

  Dipole Moment: (a.u.)
     X:     0.0000      Y:    -0.0000      Z:     0.6926     Total:     0.6926

  Dipole Moment: (Debye)
     X:     0.0000      Y:    -0.0000      Z:     1.7605     Total:     1.7605


*** tstop() called on psinet at Mon May 15 15:38:00 2017
Module time:
	user time   =       0.26 seconds =       0.00 minutes
	system time =       0.00 seconds =       0.00 minutes
	total time  =          0 seconds =       0.00 minutes
Total time:
	user time   =       2.52 seconds =       0.04 minutes
	system time =       0.11 seconds =       0.00 minutes
	total time  =          3 seconds =       0.05 minutes

*** tstart() called on psinet
*** at Mon May 15 15:38:00 2017


         ------------------------------------------------------------
                                   SCF GRAD                          
                          Rob Parrish, Justin Turney,                
                       Andy Simmonett, and Alex Sokolov              
         ------------------------------------------------------------

  ==> Geometry <==

    Molecular point group: c2
    Full point group: C2

    Geometry (in Angstrom), charge = 0, multiplicity = 1:

       Center              X                  Y                   Z               Mass       
    ------------   -----------------  -----------------  -----------------  -----------------
           H          0.900000000000     0.800000000000     0.500000000000     1.007825032070
           O          0.078628974352     0.692616305185     0.038743753593    15.994914619560
           O         -0.078628974352    -0.692616305185     0.038743753593    15.994914619560
           H         -0.900000000000    -0.800000000000     0.500000000000     1.007825032070

  Nuclear repulsion =   38.035514366582461

  ==> Basis Set <==

  Basis Set: CC-PVDZ
    Blend: CC-PVDZ
    Number of shells: 18
    Number of basis function: 38
    Number of Cartesian functions: 40
    Spherical Harmonics?: true
    Max angular momentum: 2

  ==> DFJKGrad: Density-Fitted SCF Gradients <==

    Gradient:                    1
    J tasked:                  Yes
    K tasked:                  Yes
    wK tasked:                  No
    OpenMP threads:              1
    Integrals threads:           1
    Memory (MB):               375
    Schwarz Cutoff:          0E+00
    Fitting Condition:       1E-12

   => Auxiliary Basis Set <=

  Basis Set: (CC-PVDZ AUX)
    Blend: CC-PVDZ-JKFIT
    Number of shells: 66
    Number of basis function: 186
    Number of Cartesian functions: 212
    Spherical Harmonics?: true
    Max angular momentum: 3


  -Total Gradient:
     Atom            X                  Y                   Z
    ------   -----------------  -----------------  -----------------
       1        0.000255128272     0.000027886494    -0.000283123479
       2       -0.000229569058     0.000254323504     0.000283123479
       3        0.000229569058    -0.000254323504     0.000283123479
       4       -0.000255128272    -0.000027886494    -0.000283123479


*** tstop() called on psinet at Mon May 15 15:38:00 2017
Module time:
	user time   =       0.21 seconds =       0.00 minutes
	system time =       0.01 seconds =       0.00 minutes
	total time  =          0 seconds =       0.00 minutes
Total time:
	user time   =       2.74 seconds =       0.05 minutes
	system time =       0.12 seconds =       0.00 minutes
	total time  =          3 seconds =       0.05 minutes

			-----------------------------------------
			 OPTKING 2.0: for geometry optimizations 
			  - R.A. King,  Bethel University        
			-----------------------------------------

	Previous internal coordinate definitions found.
	---Fragment 1 Geometry and Gradient---
	 H           1.7007535196        1.5117809063        0.9448630664
	 O           0.1485872276        1.3088551320        0.0732150837
	 O          -0.1485872276       -1.3088551320        0.0732150837
	 H          -1.7007535196       -1.5117809063        0.9448630664
	             0.0002551283        0.0000278865       -0.0002831235
	            -0.0002295691        0.0002543235        0.0002831235
	             0.0002295691       -0.0002543235        0.0002831235
	            -0.0002551283       -0.0000278865       -0.0002831235

	---Fragment 1 Intrafragment Coordinates---
	 - Coordinate -           - BOHR/RAD -       - ANG/DEG -
	*R(1,X)           =         1.700754	       0.900000
	*R(1,Y)           =         1.511781	       0.800000
	*R(1,Z)           =         0.944863	       0.500000
	 R(2,X)           =         0.148587	       0.078629
	 R(2,Y)           =         1.308855	       0.692616
	 R(2,Z)           =         0.073215	       0.038744
	 R(3,X)           =        -0.148587	      -0.078629
	 R(3,Y)           =        -1.308855	      -0.692616
	 R(3,Z)           =         0.073215	       0.038744
	*R(4,X)           =        -1.700754	      -0.900000
	*R(4,Y)           =        -1.511781	      -0.800000
	*R(4,Z)           =         0.944863	       0.500000

	Current energy   :      -150.7866433856

	Energy change for the previous step:
		Projected    :        -0.0000505000
		Actual       :        -0.0000209824

	Performing BFGS update.
	Previous computed or guess Hessian on step 1.
	Steps to be used in Hessian update: 4 3
	Taking RFO optimization step.
	Going to follow RFO solution 1.
	Using RFO vector 1.
	Norm of target step-size    0.01159
	Projected energy change by RFO approximation:        -0.0000003127

	Back-transformation to cartesian coordinates...
	Successfully converged to displaced geometry.

	Back-transformation to cartesian coordinates to adjust frozen coordinates...
	Successfully converged to displaced geometry.

	--- Internal Coordinate Step in ANG or DEG, aJ/ANG or AJ/DEG ---
[...]
	    4 R(2,X)          =      0.040103     0.002261     0.001788     0.041891
	    5 R(2,Y)          =      0.694846     0.006409     0.000178     0.695024
	    6 R(2,Z)          =      0.005309     0.000575    -0.003757     0.001552
	    7 R(3,X)          =     -0.040103    -0.002261    -0.001788    -0.041891
	    8 R(3,Y)          =     -0.694846    -0.006409    -0.000178    -0.695024
	    9 R(3,Z)          =      0.005309     0.000575    -0.003757     0.001552
	   10 R(4,X)          =     -0.837163     0.002632     0.002623    -0.834540
	   11 R(4,Y)          =     -0.852182     0.001110     0.001606    -0.850577
	   12 R(4,Z)          =      0.494691    -0.000575     0.003757     0.498448
	 ---------------------------------------------------------------------------
	Successfully symmetrized geometry.

  ==> Convergence Check <==

  Measures of convergence in internal coordinates in au.
  Criteria marked as inactive (o), active & met (*), and active & unmet ( ).
  ---------------------------------------------------------------------------------------------
   Step     Total Energy     Delta E     MAX Force     RMS Force      MAX Disp      RMS Disp   
  ---------------------------------------------------------------------------------------------
    Convergence Criteria    1.00e-06 *    3.00e-04 *             o    1.20e-03 *             o
  ---------------------------------------------------------------------------------------------
      7    -150.78667175   -5.81e-06      7.78e-04      3.68e-04 o    7.10e-03      4.93e-03 o  ~
  ---------------------------------------------------------------------------------------------

	Writing optimization data to binary file.
	Structure for next step:
	Cartesian Geometry (in Angstrom)
	    H     0.8345402032   0.8505765139   0.4984477634
	    O     0.0418908064   0.6950242704   0.0015522394
	    O    -0.0418908064  -0.6950242704   0.0015522394
	    H    -0.8345402032  -0.8505765139   0.4984477634
			--------------------------
			 OPTKING Finished Execution 
			--------------------------

    Structure for next step:
    Molecular point group: c2
    Full point group: C2

    Geometry (in Angstrom), charge = 0, multiplicity = 1:

    H            0.834540203162     0.850576513893     0.498447763380
    O            0.041890806373     0.695024270440     0.001552239445
    O           -0.041890806373    -0.695024270440     0.001552239445
    H           -0.834540203162    -0.850576513893     0.498447763380

gradient() will perform analytic gradient computation.

*** tstart() called on psinet
*** at Mon May 15 15:38:10 2017

   => Loading Basis Set <=

    Name: CC-PVDZ
    Role: ORBITAL
    Keyword: BASIS
    atoms 1, 4 entry H          line    20 file /home/psilocaluser/gits/hrw-direct/objdir4/stage/usr/local/psi4/share/psi4/basis/cc-pvdz.gbs 
    atoms 2-3  entry O          line   190 file /home/psilocaluser/gits/hrw-direct/objdir4/stage/usr/local/psi4/share/psi4/basis/cc-pvdz.gbs 


         ---------------------------------------------------------
                                   SCF
            by Justin Turney, Rob Parrish, and Andy Simmonett
                              RHF Reference
                        1 Threads,    500 MiB Core
         ---------------------------------------------------------

  ==> Geometry <==

    Molecular point group: c2
    Full point group: C2

    Geometry (in Angstrom), charge = 0, multiplicity = 1:

       Center              X                  Y                   Z               Mass       
    ------------   -----------------  -----------------  -----------------  -----------------
           H          0.834540203162     0.850576513893     0.498447763380     1.007825032070
           O          0.041890806373     0.695024270440     0.001552239445    15.994914619560
           O         -0.041890806373    -0.695024270440     0.001552239445    15.994914619560
           H         -0.834540203162    -0.850576513893     0.498447763380     1.007825032070

  Running in c2 symmetry.

  Rotational constants: A =     10.48518  B =      0.94891  C =      0.91761 [cm^-1]
  Rotational constants: A = 314337.87996  B =  28447.73538  C =  27509.30661 [MHz]
  Nuclear repulsion =   38.059024493464818

  Charge       = 0
  Multiplicity = 1
  Electrons    = 18
  Nalpha       = 9
  Nbeta        = 9

  ==> Algorithm <==

  SCF Algorithm Type is DF.
  DIIS enabled.
  MOM disabled.
  Fractional occupation disabled.
  Guess Type is READ.
  Energy threshold   = 1.00e-08
  Density threshold  = 1.00e-08
  Integral threshold = 0.00e+00

  ==> Primary Basis <==

  Basis Set: CC-PVDZ
    Blend: CC-PVDZ
    Number of shells: 18
    Number of basis function: 38
    Number of Cartesian functions: 40
    Spherical Harmonics?: true
    Max angular momentum: 2

   => Loading Basis Set <=

    Name: (CC-PVDZ AUX)
    Role: JKFIT
    Keyword: DF_BASIS_SCF
    atoms 1, 4 entry H          line    50 file /home/psilocaluser/gits/hrw-direct/objdir4/stage/usr/local/psi4/share/psi4/basis/cc-pvdz-jkfit.gbs 
    atoms 2-3  entry O          line   220 file /home/psilocaluser/gits/hrw-direct/objdir4/stage/usr/local/psi4/share/psi4/basis/cc-pvdz-jkfit.gbs 

  Reading orbitals from file 180, no projection.

  ==> Pre-Iterations <==

   -------------------------------------------------------
    Irrep   Nso     Nmo     Nalpha   Nbeta   Ndocc  Nsocc
   -------------------------------------------------------
     A         19      19       0       0       0       0
     B         19      19       0       0       0       0
   -------------------------------------------------------
    Total      38      38       9       9       9       0
   -------------------------------------------------------

  ==> Integral Setup <==

  ==> DFJK: Density-Fitted J/K Matrices <==

    J tasked:                  Yes
    K tasked:                  Yes
    wK tasked:                  No
    OpenMP threads:              1
    Integrals threads:           1
    Memory (MB):               375
    Algorithm:                Core
    Integral Cache:           NONE
    Schwarz Cutoff:          1E-12
    Fitting Condition:       1E-12

   => Auxiliary Basis Set <=

  Basis Set: (CC-PVDZ AUX)
    Blend: CC-PVDZ-JKFIT
    Number of shells: 66
    Number of basis function: 186
    Number of Cartesian functions: 212
    Spherical Harmonics?: true
    Max angular momentum: 3

  Minimum eigenvalue in the overlap matrix is 2.2128033373E-02.
  Using Symmetric Orthogonalization.

  SCF Guess: Orbitals guess was supplied from a previous computation.

  ==> Iterations <==

                           Total Energy        Delta E     RMS |[F,P]|

   @DF-RHF iter   0:  -150.78639606175381   -1.50786e+02   3.05884e-04 
   @DF-RHF iter   1:  -150.78667043486865   -2.74373e-04   7.48453e-05 
   @DF-RHF iter   2:  -150.78667342588290   -2.99101e-06   2.58020e-05 DIIS
   @DF-RHF iter   3:  -150.78667407141572   -6.45533e-07   8.87181e-06 DIIS
   @DF-RHF iter   4:  -150.78667415840741   -8.69917e-08   2.29096e-06 DIIS
   @DF-RHF iter   5:  -150.78667416331282   -4.90542e-09   6.94143e-07 DIIS
   @DF-RHF iter   6:  -150.78667416368978   -3.76957e-10   1.36287e-07 DIIS
   @DF-RHF iter   7:  -150.78667416371280   -2.30216e-11   4.22368e-08 DIIS
   @DF-RHF iter   8:  -150.78667416371533   -2.52953e-12   1.39048e-08 DIIS
   @DF-RHF iter   9:  -150.78667416371559   -2.55795e-13   4.26252e-09 DIIS

  ==> Post-Iterations <==

    Orbital Energies (a.u.)
    -----------------------

    Doubly Occupied:                                                      

       1A    -20.616680     1B    -20.616342     2A     -1.498385  
       2B     -1.203610     3A     -0.724460     3B     -0.712007  
       4A     -0.615795     5A     -0.504175     4B     -0.466497  

    Virtual:                                                              

       6A      0.191913     5B      0.200771     6B      0.347877  
       7B      0.833923     7A      0.840771     8B      1.119674  
       8A      1.142510     9A      1.153077     9B      1.217126  
      10B      1.280802    10A      1.331140    11B      1.473335  
      11A      1.511747    12B      1.654283    12A      1.680552  
      13A      1.958065    13B      2.013109    14B      2.479333  
      14A      2.480137    15A      2.721479    16A      2.829833  
      15B      2.868794    17A      3.249544    16B      3.314051  
      17B      3.522093    18A      3.611658    18B      3.923346  
      19A      3.968771    19B      4.284573  

    Final Occupation by Irrep:
              A     B 
    DOCC [     5,    4 ]

  Energy converged.

  @DF-RHF Final Energy:  -150.78667416371559

   => Energetics <=

    Nuclear Repulsion Energy =             38.0590244934648183
    One-Electron Energy =                -283.7754929599861384
    Two-Electron Energy =                  94.9297943028057034
    DFT Exchange-Correlation Energy =       0.0000000000000000
    Empirical Dispersion Energy =           0.0000000000000000
    PCM Polarization Energy =               0.0000000000000000
    EFP Energy =                            0.0000000000000000
    Total Energy =                       -150.7866741637156167



Properties will be evaluated at   0.000000,   0.000000,   0.000000 Bohr

Properties computed using the SCF density matrix

  Nuclear Dipole Moment: (a.u.)
     X:     0.0000      Y:     0.0000      Z:     1.9308

  Electronic Dipole Moment: (a.u.)
     X:     0.0000      Y:     0.0000      Z:    -1.1863

  Dipole Moment: (a.u.)
     X:     0.0000      Y:     0.0000      Z:     0.7445     Total:     0.7445

  Dipole Moment: (Debye)
     X:     0.0000      Y:     0.0000      Z:     1.8923     Total:     1.8923


*** tstop() called on psinet at Mon May 15 15:38:10 2017
Module time:
	user time   =       0.26 seconds =       0.00 minutes
	system time =       0.01 seconds =       0.00 minutes
	total time  =          0 seconds =       0.00 minutes
Total time:
	user time   =      12.04 seconds =       0.20 minutes
	system time =       0.48 seconds =       0.01 minutes
	total time  =         13 seconds =       0.22 minutes

*** tstart() called on psinet
*** at Mon May 15 15:38:10 2017


         ------------------------------------------------------------
                                   SCF GRAD                          
                          Rob Parrish, Justin Turney,                
                       Andy Simmonett, and Alex Sokolov              
         ------------------------------------------------------------

  ==> Geometry <==

    Molecular point group: c2
    Full point group: C2

    Geometry (in Angstrom), charge = 0, multiplicity = 1:

       Center              X                  Y                   Z               Mass       
    ------------   -----------------  -----------------  -----------------  -----------------
           H          0.834540203162     0.850576513893     0.498447763380     1.007825032070
           O          0.041890806373     0.695024270440     0.001552239445    15.994914619560
           O         -0.041890806373    -0.695024270440     0.001552239445    15.994914619560
           H         -0.834540203162    -0.850576513893     0.498447763380     1.007825032070

  Nuclear repulsion =   38.059024493464811

  ==> Basis Set <==

  Basis Set: CC-PVDZ
    Blend: CC-PVDZ
    Number of shells: 18
    Number of basis function: 38
    Number of Cartesian functions: 40
    Spherical Harmonics?: true
    Max angular momentum: 2

  ==> DFJKGrad: Density-Fitted SCF Gradients <==

    Gradient:                    1
    J tasked:                  Yes
    K tasked:                  Yes
    wK tasked:                  No
    OpenMP threads:              1
    Integrals threads:           1
    Memory (MB):               375
    Schwarz Cutoff:          0E+00
    Fitting Condition:       1E-12

   => Auxiliary Basis Set <=

  Basis Set: (CC-PVDZ AUX)
    Blend: CC-PVDZ-JKFIT
    Number of shells: 66
    Number of basis function: 186
    Number of Cartesian functions: 212
    Spherical Harmonics?: true
    Max angular momentum: 3


  -Total Gradient:
     Atom            X                  Y                   Z
    ------   -----------------  -----------------  -----------------
       1        0.000156776712     0.000046373751     0.000087776802
       2       -0.000146646416    -0.000173757692    -0.000087776802
       3        0.000146646416     0.000173757692    -0.000087776802
       4       -0.000156776712    -0.000046373751     0.000087776802


*** tstop() called on psinet at Mon May 15 15:38:10 2017
Module time:
	user time   =       0.22 seconds =       0.00 minutes
	system time =       0.01 seconds =       0.00 minutes
	total time  =          0 seconds =       0.00 minutes
Total time:
	user time   =      12.26 seconds =       0.20 minutes
	system time =       0.49 seconds =       0.01 minutes
	total time  =         13 seconds =       0.22 minutes

			-----------------------------------------
			 OPTKING 2.0: for geometry optimizations 
			  - R.A. King,  Bethel University        
			-----------------------------------------

	Previous internal coordinate definitions found.
	---Fragment 1 Geometry and Gradient---
	 H           1.5770524309        1.6073566663        0.9419297643
	 O           0.0791621515        1.3134055268        0.0029333074
	 O          -0.0791621515       -1.3134055268        0.0029333074
	 H          -1.5770524309       -1.6073566663        0.9419297643
	             0.0001567767        0.0000463738        0.0000877768
	            -0.0001466464       -0.0001737577       -0.0000877768
	             0.0001466464        0.0001737577       -0.0000877768
	            -0.0001567767       -0.0000463738        0.0000877768

	---Fragment 1 Intrafragment Coordinates---
	 - Coordinate -           - BOHR/RAD -       - ANG/DEG -
	 R(1,X)           =         1.577052	       0.834540
	 R(1,Y)           =         1.607357	       0.850577
	 R(1,Z)           =         0.941930	       0.498448
	 R(2,X)           =         0.079162	       0.041891
	 R(2,Y)           =         1.313406	       0.695024
	 R(2,Z)           =         0.002933	       0.001552
	 R(3,X)           =        -0.079162	      -0.041891
	 R(3,Y)           =        -1.313406	      -0.695024
	 R(3,Z)           =         0.002933	       0.001552
	 R(4,X)           =        -1.577052	      -0.834540
	 R(4,Y)           =        -1.607357	      -0.850577
	 R(4,Z)           =         0.941930	       0.498448

	Current energy   :      -150.7866741637

	Energy change for the previous step:
		Projected    :        -0.0000626637
		Actual       :        -0.0000024176
	Energy ratio indicates iffy step: Trust radius decreased to 1.562e-02.


	Performing BFGS update.
	Previous computed or guess Hessian on step 1.
	Steps to be used in Hessian update: 7 6
	Taking RFO optimization step.
	Going to follow RFO solution 1.
	Using RFO vector 1.
	Norm of target step-size    0.00208
	Projected energy change by RFO approximation:        -0.0000001969

	Back-transformation to cartesian coordinates...
	Successfully converged to displaced geometry.

	--- Internal Coordinate Step in ANG or DEG, aJ/ANG or AJ/DEG ---
	 ---------------------------------------------------------------------------
	   Coordinate                Previous        Force       Change         New 
	   ----------                --------       ------       ------       ------
	    1 R(1,X)          =      0.834540    -0.001292     0.000237     0.834777
	    2 R(1,Y)          =      0.850577    -0.000382    -0.000591     0.849986
	    3 R(1,Z)          =      0.498448    -0.000723     0.000089     0.498537
	    4 R(2,X)          =      0.041891     0.001208     0.000422     0.042313
	    5 R(2,Y)          =      0.695024     0.001432     0.000077     0.695101
	    6 R(2,Z)          =      0.001552     0.000723    -0.000089     0.001463
	    7 R(3,X)          =     -0.041891    -0.001208    -0.000422    -0.042313
	    8 R(3,Y)          =     -0.695024    -0.001432    -0.000077    -0.695101
	    9 R(3,Z)          =      0.001552     0.000723    -0.000089     0.001463
	   10 R(4,X)          =     -0.834540     0.001292    -0.000237    -0.834777
	   11 R(4,Y)          =     -0.850577     0.000382     0.000591    -0.849986
	   12 R(4,Z)          =      0.498448    -0.000723     0.000089     0.498537
	 ---------------------------------------------------------------------------
	Successfully symmetrized geometry.

  ==> Convergence Check <==

  Measures of convergence in internal coordinates in au.
  Criteria marked as inactive (o), active & met (*), and active & unmet ( ).
  ---------------------------------------------------------------------------------------------
   Step     Total Energy     Delta E     MAX Force     RMS Force      MAX Disp      RMS Disp   
  ---------------------------------------------------------------------------------------------
    Convergence Criteria    1.00e-06 *    3.00e-04 *             o    1.20e-03 *             o
  ---------------------------------------------------------------------------------------------
      8    -150.78667416   -2.42e-06      1.74e-04 *    1.25e-04 o    1.12e-03 *    6.00e-04 o  ~
  ---------------------------------------------------------------------------------------------


  **** Optimization is complete! (in 8 steps) ****

  ==> Optimization Summary <==

  Measures of convergence in internal coordinates in au.
  --------------------------------------------------------------------------------------------------------------- ~
   Step         Total Energy             Delta E       MAX Force       RMS Force        MAX Disp        RMS Disp  ~
  --------------------------------------------------------------------------------------------------------------- ~
      1    -150.769562686645   -150.769562686645      0.08777121      0.04990059      0.11246679      0.05192415  ~
      2    -150.785772964148     -0.016210277503      0.01593866      0.01150231      0.06332706      0.02964956  ~
      3    -150.786548392261     -0.000775428113      0.00639258      0.00427339      0.02591592      0.01624045  ~
      4    -150.786637722042     -0.000089329781      0.00245316      0.00142767      0.00637573      0.00387412  ~
      5    -150.786657807082     -0.000020085039      0.00030011      0.00022525      0.01052186      0.00659868  ~
      6    -150.786665939425     -0.000008132343      0.00080887      0.00035396      0.00894508      0.00627756  ~
      7    -150.786671746102     -0.000005806677      0.00077792      0.00036753      0.00709969      0.00493473  ~
      8    -150.786674163716     -0.000002417614      0.00017376      0.00012506      0.00111649      0.00060012  ~
  --------------------------------------------------------------------------------------------------------------- ~

	Writing optimization data to binary file.
	Final energy is   -150.7866741637156
	Final (previous) structure:
	Cartesian Geometry (in Angstrom)
	    H     0.8345402032   0.8505765139   0.4984477634
	    O     0.0418908064   0.6950242704   0.0015522394
	    O    -0.0418908064  -0.6950242704   0.0015522394
	    H    -0.8345402032  -0.8505765139   0.4984477634
	Saving final (previous) structure.
			--------------------------
			 OPTKING Finished Execution 
			--------------------------

    Final optimized geometry and variables:
    Molecular point group: c2
    Full point group: C2

    Geometry (in Angstrom), charge = 0, multiplicity = 1:

    H            0.834540203162     0.850576513893     0.498447763380
    O            0.041890806373     0.695024270440     0.001552239445
    O           -0.041890806373    -0.695024270440     0.001552239445
    H           -0.834540203162    -0.850576513893     0.498447763380

	Cleaning optimization helper files.
	Cart. Coord. RHF opt of HOOH, energy..............................PASSED

*** Psi4 exiting successfully. Buy a developer a beer!
