    -----------------------------------------------------------------------
          Psi4: An Open-Source Ab Initio Electronic Structure Package
                              Psi4 0.3.329 Driver

                          Git: Rev {opt16} 2e5a4e4 dirty

    J. M. Turney, A. C. Simmonett, R. M. Parrish, E. G. Hohenstein,
    F. A. Evangelista, J. T. Fermann, B. J. Mintz, L. A. Burns, J. J. Wilke,
    M. L. Abrams, N. J. Russ, M. L. Leininger, C. L. Janssen, E. T. Seidl,
    W. D. Allen, H. F. Schaefer, R. A. King, E. F. Valeev, C. D. Sherrill,
    and T. D. Crawford, WIREs Comput. Mol. Sci. 2, 556-565 (2012)
    (doi: 10.1002/wcms.93)

                         Additional Contributions by
    A. E. DePrince, M. Saitow, U. Bozkaya, A. Yu. Sokolov
    -----------------------------------------------------------------------


    Psi4 started on: Tue Jan 12 11:04:09 2016

    Process ID:  17695
    PSI4DATADIR: /usr/local/psi4/share/psi
    Memory level set to 256.000 MB

  ==> Input File <==

--------------------------------------------------------------------------
#! Various constrained energy minimizations of HOOH with cc-pvdz RHF.
#! Cartesian-coordinate constrained optimizations of HOOH in Cartesians.

HOOH_E_fixed_H_xyz = -150.7866490998188     # TEST
HOOH_E_fixed_O_xyz = -150.7866389583059     # TEST
HOOH_E             = -150.7866739753094     # TEST

set globals {
  basis cc-pvdz
  opt_coordinates cartesian
}

# Freeze H xyz in HOOH.
molecule {
  H  0.90  0.80  0.5
  O  0.00  0.70  0.0
  O  0.00 -0.70  0.0
  H -0.90 -0.80  0.5
  no_com
  no_reorient
}

freeze_list = """
  1 xyz 
  4 xyz 
"""

set optking frozen_cartesian $freeze_list
thisenergy = optimize('scf')
compare_values(HOOH_E_fixed_H_xyz, thisenergy, 6, "Cart. Coord. RHF opt of HOOH with H's xyz frozen, energy")  #TEST

# Freeze O xyz in HOOH.
molecule {
  H  0.90  0.80  0.5
  O  0.00  0.70  0.0
  O  0.00 -0.70  0.0
  H -0.90 -0.80  0.5
  no_com
  no_reorient
}

freeze_list = """
  2 xyz 
  3 xyz 
"""

set optking frozen_cartesian $freeze_list
thisenergy = optimize('scf')
compare_values(HOOH_E_fixed_O_xyz, thisenergy, 6, "Cart. Coord. RHF opt of HOOH with O's xyz frozen, energy")  #TEST

# Full optimization
molecule {
  H  0.90  0.80  0.5
  O  0.00  0.70  0.0
  O  0.00 -0.70  0.0
  H -0.90 -0.80  0.5
  no_com
  no_reorient
}

freeze_list = ""
set optking frozen_cartesian $freeze_list
thisenergy = optimize('scf')
compare_values(HOOH_E, thisenergy, 6, "Cart. Coord. RHF opt of HOOH, energy")  #TEST

--------------------------------------------------------------------------
gradient() will perform analytic gradient computation.

*** tstart() called on gimli.chem.bethel.edu
*** at Tue Jan 12 11:04:09 2016

    There are an even number of electrons - assuming singlet.
    Specify the multiplicity with the MULTP option in the
    input if this is incorrect


         ---------------------------------------------------------
                                   SCF
            by Justin Turney, Rob Parrish, and Andy Simmonett
                              RHF Reference
                        8 Threads,    256 MiB Core
         ---------------------------------------------------------

  ==> Geometry <==

    Molecular point group: c2
    Full point group: C2

    Geometry (in Angstrom), charge = 0, multiplicity = 1:

       Center              X                  Y                   Z               Mass       
    ------------   -----------------  -----------------  -----------------  -----------------
           H          0.900000000000     0.800000000000     0.500000000000     1.007825032070
           O         -0.000000000000     0.700000000000     0.000000000000    15.994914619560
           O          0.000000000000    -0.700000000000     0.000000000000    15.994914619560
           H         -0.900000000000    -0.800000000000     0.500000000000     1.007825032070

  Running in c2 symmetry.

  Rotational constants: A =      8.42700  B =      0.95754  C =      0.90644 [cm^-1]
  Rotational constants: A = 252635.18894  B =  28706.39138  C =  27174.26147 [MHz]
  Nuclear repulsion =   37.249679237734171

  Charge       = 0
  Multiplicity = 1
  Electrons    = 18
  Nalpha       = 9
  Nbeta        = 9

  ==> Algorithm <==

  SCF Algorithm Type is DF.
  DIIS enabled.
  MOM disabled.
  Fractional occupation disabled.
  Guess Type is CORE.
  Energy threshold   = 1.00e-08
  Density threshold  = 1.00e-08
  Integral threshold = 0.00e+00

  ==> Primary Basis <==

  Basis Set: CC-PVDZ
    Number of shells: 18
    Number of basis function: 38
    Number of Cartesian functions: 40
    Spherical Harmonics?: true
    Max angular momentum: 2

  ==> Pre-Iterations <==

   -------------------------------------------------------
    Irrep   Nso     Nmo     Nalpha   Nbeta   Ndocc  Nsocc
   -------------------------------------------------------
     A         19      19       0       0       0       0
     B         19      19       0       0       0       0
   -------------------------------------------------------
    Total      38      38       9       9       9       0
   -------------------------------------------------------

 OEINTS: Overlap, kinetic, potential, dipole, and quadrupole integrals
         stored in file 35.

  ==> Integral Setup <==

  ==> DFJK: Density-Fitted J/K Matrices <==

    J tasked:                  Yes
    K tasked:                  Yes
    wK tasked:                  No
    OpenMP threads:              8
    Integrals threads:           8
    Memory (MB):               183
    Algorithm:                Core
    Integral Cache:           NONE
    Schwarz Cutoff:          1E-12
    Fitting Condition:       1E-12

   => Auxiliary Basis Set <=

  Basis Set: 
    Number of shells: 66
    Number of basis function: 186
    Number of Cartesian functions: 212
    Spherical Harmonics?: true
    Max angular momentum: 3

  Minimum eigenvalue in the overlap matrix is 2.3342885163E-02.
  Using Symmetric Orthogonalization.
  SCF Guess: Core (One-Electron) Hamiltonian.

  ==> Iterations <==

                           Total Energy        Delta E     RMS |[F,P]|

   @DF-RHF iter   1:  -139.35673834142978   -1.39357e+02   1.42115e-01 
   @DF-RHF iter   2:  -142.10916415770438   -2.75243e+00   1.35101e-01 DIIS
   @DF-RHF iter   3:  -150.58350090701038   -8.47434e+00   2.37417e-02 DIIS
   @DF-RHF iter   4:  -150.75664652314788   -1.73146e-01   4.82736e-03 DIIS
   @DF-RHF iter   5:  -150.76835008116288   -1.17036e-02   1.04405e-03 DIIS
   @DF-RHF iter   6:  -150.76940275146129   -1.05267e-03   4.45629e-04 DIIS
   @DF-RHF iter   7:  -150.76955184184402   -1.49090e-04   9.28552e-05 DIIS
   @DF-RHF iter   8:  -150.76956070322277   -8.86138e-06   3.28071e-05 DIIS
   @DF-RHF iter   9:  -150.76956234377644   -1.64055e-06   1.30439e-05 DIIS
   @DF-RHF iter  10:  -150.76956267856150   -3.34785e-07   2.74919e-06 DIIS
   @DF-RHF iter  11:  -150.76956268636926   -7.80776e-09   5.00522e-07 DIIS
   @DF-RHF iter  12:  -150.76956268665018   -2.80920e-10   7.00268e-08 DIIS
   @DF-RHF iter  13:  -150.76956268665407   -3.89377e-12   1.92241e-08 DIIS
   @DF-RHF iter  14:  -150.76956268665435   -2.84217e-13   3.77945e-09 DIIS

  ==> Post-Iterations <==

    Orbital Energies (a.u.)
    -----------------------

    Doubly Occupied:                                                      

       1A    -20.622250     1B    -20.621916     2A     -1.483682  
       2B     -1.168605     3B     -0.708299     3A     -0.681826  
       4A     -0.608070     5A     -0.505059     4B     -0.455996  

    Virtual:                                                              

       6A      0.175190     5B      0.194106     6B      0.331804  
       7A      0.765000     7B      0.775224     8B      1.117505  
       8A      1.128439     9A      1.146644     9B      1.205296  
      10B      1.298367    10A      1.336436    11B      1.426651  
      11A      1.512363    12B      1.635462    12A      1.682966  
      13A      1.959496    13B      2.025158    14B      2.289856  
      14A      2.305904    15A      2.691431    16A      2.831109  
      15B      2.856676    17A      3.190793    16B      3.221240  
      17B      3.477039    18A      3.553928    19A      3.850120  
      18B      3.851396    19B      4.273481  

    Final Occupation by Irrep:
              A     B 
    DOCC [     5,    4 ]

  Energy converged.

  @DF-RHF Final Energy:  -150.76956268665435

   => Energetics <=

    Nuclear Repulsion Energy =             37.2496792377341706
    One-Electron Energy =                -282.3270756422873546
    Two-Electron Energy =                  94.3078337178988306
    DFT Exchange-Correlation Energy =       0.0000000000000000
    Empirical Dispersion Energy =           0.0000000000000000
    PCM Polarization Energy =               0.0000000000000000
    EFP Energy =                            0.0000000000000000
    Total Energy =                       -150.7695626866543535

    Alert: EFP and PCM quantities not currently incorporated into SCF psivars.

Properties will be evaluated at   0.000000,   0.000000,   0.000000 Bohr
  ==> Properties <==


Properties computed using the SCF density matrix

  Nuclear Dipole Moment: (a.u.)
     X:     0.0000      Y:    -0.0000      Z:     1.8897

  Electronic Dipole Moment: (a.u.)
     X:     0.0000      Y:     0.0000      Z:    -1.1753

  Dipole Moment: (a.u.)
     X:     0.0000      Y:    -0.0000      Z:     0.7144     Total:     0.7144

  Dipole Moment: (Debye)
     X:     0.0000      Y:    -0.0000      Z:     1.8158     Total:     1.8158


  Saving occupied orbitals to File 180.

*** tstop() called on gimli.chem.bethel.edu at Tue Jan 12 11:04:09 2016
Module time:
	user time   =       0.75 seconds =       0.01 minutes
	system time =       0.01 seconds =       0.00 minutes
	total time  =          0 seconds =       0.00 minutes
Total time:
	user time   =       0.75 seconds =       0.01 minutes
	system time =       0.01 seconds =       0.00 minutes
	total time  =          0 seconds =       0.00 minutes

*** tstart() called on gimli.chem.bethel.edu
*** at Tue Jan 12 11:04:09 2016


         ------------------------------------------------------------
                                   SCF GRAD                          
                          Rob Parrish, Justin Turney,                
                       Andy Simmonett, and Alex Sokolov              
         ------------------------------------------------------------

  ==> Geometry <==

    Molecular point group: c2
    Full point group: C2

    Geometry (in Angstrom), charge = 0, multiplicity = 1:

       Center              X                  Y                   Z               Mass       
    ------------   -----------------  -----------------  -----------------  -----------------
           H          0.900000000000     0.800000000000     0.500000000000     1.007825032070
           O         -0.000000000000     0.700000000000     0.000000000000    15.994914619560
           O          0.000000000000    -0.700000000000     0.000000000000    15.994914619560
           H         -0.900000000000    -0.800000000000     0.500000000000     1.007825032070

  Nuclear repulsion =   37.249679237734171

  ==> Basis Set <==

  Basis Set: CC-PVDZ
    Number of shells: 18
    Number of basis function: 38
    Number of Cartesian functions: 40
    Spherical Harmonics?: true
    Max angular momentum: 2

  ==> DFJKGrad: Density-Fitted SCF Gradients <==

    Gradient:                    1
    J tasked:                  Yes
    K tasked:                  Yes
    wK tasked:                  No
    OpenMP threads:              8
    Integrals threads:           8
    Memory (MB):               183
    Schwarz Cutoff:          0E+00
    Fitting Condition:       1E-12

   => Auxiliary Basis Set <=

  Basis Set: 
    Number of shells: 66
    Number of basis function: 186
    Number of Cartesian functions: 212
    Spherical Harmonics?: true
    Max angular momentum: 3


  -Total Gradient:
     Atom            X                  Y                   Z
    ------   -----------------  -----------------  -----------------
       1        0.065982834744    -0.009615093864     0.037074173981
       2       -0.087771216130    -0.006438536071    -0.037074173980
       3        0.087771216135     0.006438536072    -0.037074173983
       4       -0.065982834748     0.009615093863     0.037074173983


*** tstop() called on gimli.chem.bethel.edu at Tue Jan 12 11:04:10 2016
Module time:
	user time   =       1.00 seconds =       0.02 minutes
	system time =       0.08 seconds =       0.00 minutes
	total time  =          1 seconds =       0.02 minutes
Total time:
	user time   =       1.75 seconds =       0.03 minutes
	system time =       0.09 seconds =       0.00 minutes
	total time  =          1 seconds =       0.02 minutes
CURRENT ENERGY: -150.7695626867

			-----------------------------------------
			 OPTKING 2.0: for geometry optimizations 
			  - R.A. King,  Bethel University        
			-----------------------------------------

	Internal coordinates to be generated automatically.
	Detected frag with atoms:  1 2 3 4
	---Fragment 1 Bond Connectivity---
	 1 : 2
	 2 : 1 3
	 3 : 2 4
	 4 : 3

	Assuming in current code that numbering for constraints corresponds to unified fragment.
	---Fragment 1 Geometry and Gradient---
	 H           1.7007535196        1.5117809063        0.9448630664
	 O          -0.0000000000        1.3228082930        0.0000000000
	 O           0.0000000000       -1.3228082930        0.0000000000
	 H          -1.7007535196       -1.5117809063        0.9448630664
	             0.0659828347       -0.0096150939        0.0370741740
	            -0.0877712161       -0.0064385361       -0.0370741740
	             0.0877712161        0.0064385361       -0.0370741740
	            -0.0659828347        0.0096150939        0.0370741740

	Previous optimization step data not found.  Starting new optimization.

	---Fragment 1 Intrafragment Coordinates---
	 - Coordinate -           - BOHR/RAD -       - ANG/DEG -
	*R(1,X)           =         1.700754	       0.900000
	*R(1,Y)           =         1.511781	       0.800000
	*R(1,Z)           =         0.944863	       0.500000
	 R(2,X)           =        -0.000000	      -0.000000
	 R(2,Y)           =         1.322808	       0.700000
	 R(2,Z)           =         0.000000	       0.000000
	 R(3,X)           =         0.000000	       0.000000
	 R(3,Y)           =        -1.322808	      -0.700000
	 R(3,Z)           =         0.000000	       0.000000
	*R(4,X)           =        -1.700754	      -0.900000
	*R(4,Y)           =        -1.511781	      -0.800000
	*R(4,Z)           =         0.944863	       0.500000

	Current energy   :      -150.7695626867

	Using model Hessian from Lindh (1995).
	 - Coordinate -           - BOHR/RAD -       - ANG/DEG -
	 R(1,2)           =         1.954748	       1.034408
	 R(1,3)           =         3.438055	       1.819341
	 R(2,3)           =         2.645617	       1.400000
	 R(2,4)           =         3.438055	       1.819341
	 R(3,4)           =         1.954748	       1.034408
	 B(1,2,3)         =         1.667621	      95.547656
	 B(1,2,4)         =         1.957643	     112.164693
	 B(1,3,2)         =         0.601523	      34.464744
	 B(1,3,4)         =         1.957643	     112.164693
	 B(2,1,3)         =         0.872448	      49.987600
	 B(2,3,4)         =         1.667621	      95.547656
	 B(2,4,3)         =         0.872448	      49.987600
	 B(3,2,4)         =         0.601523	      34.464744
	 D(1,2,3,4)       =         2.127396	     121.890792
	 D(1,2,4,3)       =        -1.149382	     -65.854744
	 D(1,3,2,4)       =        -2.127396	    -121.890792
	 D(1,3,4,2)       =         0.545469	      31.253090
	 D(2,1,3,4)       =        -1.149382	     -65.854744
	 D(3,1,2,4)       =         0.545469	      31.253090

	Taking RFO optimization step.
	Going to follow RFO solution 1.
	Using RFO vector 1.
	Norm of target step-size    0.19486
	Projected energy change by RFO approximation:        -0.0252321517

	Back-transformation to cartesian coordinates...
	Successfully converged to displaced geometry.

	Back-transformation to cartesian coordinates to adjust frozen coordinates...
	Successfully converged to displaced geometry.

	--- Internal Coordinate Step in ANG or DEG, aJ/ANG or AJ/DEG ---
	 ---------------------------------------------------------------------------
	   Coordinate                Previous        Force       Change         New 
	   ----------                --------       ------       ------       ------
	    1 *R(1,X)         =      0.900000     0.000000     0.000000     0.900000
	    2 *R(1,Y)         =      0.800000     0.000000     0.000000     0.800000
	    3 *R(1,Z)         =      0.500000     0.000000     0.000000     0.500000
	    4 R(2,X)          =     -0.000000     0.723123     0.070262     0.070262
	    5 R(2,Y)          =      0.700000     0.053045     0.004040     0.704040
	    6 R(2,Z)          =      0.000000     0.305444     0.019066     0.019066
	    7 R(3,X)          =      0.000000    -0.723123    -0.070262    -0.070262
	    8 R(3,Y)          =     -0.700000    -0.053045    -0.004040    -0.704040
	    9 R(3,Z)          =      0.000000     0.305444     0.019066     0.019066
	   10 *R(4,X)         =     -0.900000     0.000000     0.000000    -0.900000
	   11 *R(4,Y)         =     -0.800000     0.000000     0.000000    -0.800000
	   12 *R(4,Z)         =      0.500000     0.000000     0.000000     0.500000
	 ---------------------------------------------------------------------------

  ==> Convergence Check <==

  Measures of convergence in internal coordinates in au.
  Criteria marked as inactive (o), active & met (*), and active & unmet ( ).
  --------------------------------------------------------------------------------------------- ~
   Step     Total Energy     Delta E     MAX Force     RMS Force      MAX Disp      RMS Disp    ~
  --------------------------------------------------------------------------------------------- ~
    Convergence Criteria    1.00e-06 *    3.00e-04 *             o    1.20e-03 *             o  ~
  --------------------------------------------------------------------------------------------- ~
      1    -150.76956269   -1.51e+02      8.78e-02      3.90e-02 o    1.33e-01      5.63e-02 o  ~
  ---------------------------------------------------------------------------------------------

	Writing optimization data to binary file.
	Structure for next step:
	Cartesian Geometry (in Angstrom)
	    H     0.9000000000   0.8000000000   0.5000000000
	    O     0.0702623033   0.7040400340   0.0190662888
	    O    -0.0702623033  -0.7040400340   0.0190662888
	    H    -0.9000000000  -0.8000000000   0.5000000000
			--------------------------
			 OPTKING Finished Execution 
			--------------------------

    Structure for next step:
    Molecular point group: c2
    Full point group: C2

    Geometry (in Angstrom), charge = 0, multiplicity = 1:

    H            0.900000000000     0.800000000000     0.500000000000
    O            0.070262303332     0.704040033970     0.019066288845
    O           -0.070262303332    -0.704040033970     0.019066288845
    H           -0.900000000000    -0.800000000000     0.500000000000

gradient() will perform analytic gradient computation.

*** tstart() called on gimli.chem.bethel.edu
*** at Tue Jan 12 11:04:10 2016

    There are an even number of electrons - assuming singlet.
    Specify the multiplicity with the MULTP option in the
    input if this is incorrect


         ---------------------------------------------------------
                                   SCF
            by Justin Turney, Rob Parrish, and Andy Simmonett
                              RHF Reference
                        8 Threads,    256 MiB Core
         ---------------------------------------------------------

  ==> Geometry <==

    Molecular point group: c2
    Full point group: C2

    Geometry (in Angstrom), charge = 0, multiplicity = 1:

       Center              X                  Y                   Z               Mass       
    ------------   -----------------  -----------------  -----------------  -----------------
           H          0.900000000000     0.800000000000     0.500000000000     1.007825032070
           O          0.070262303332     0.704040033970     0.019066288845    15.994914619560
           O         -0.070262303332    -0.704040033970     0.019066288845    15.994914619560
           H         -0.900000000000    -0.800000000000     0.500000000000     1.007825032070

  Running in c2 symmetry.

  Rotational constants: A =      9.75260  B =      0.92423  C =      0.89019 [cm^-1]
  Rotational constants: A = 292375.52381  B =  27707.71361  C =  26687.25205 [MHz]
  Nuclear repulsion =   37.505982658624156

  Charge       = 0
  Multiplicity = 1
  Electrons    = 18
  Nalpha       = 9
  Nbeta        = 9

  ==> Algorithm <==

  SCF Algorithm Type is DF.
  DIIS enabled.
  MOM disabled.
  Fractional occupation disabled.
  Guess Type is READ.
  Energy threshold   = 1.00e-08
  Density threshold  = 1.00e-08
  Integral threshold = 0.00e+00

  ==> Primary Basis <==

  Basis Set: CC-PVDZ
    Number of shells: 18
    Number of basis function: 38
    Number of Cartesian functions: 40
    Spherical Harmonics?: true
    Max angular momentum: 2

  ==> Pre-Iterations <==

   -------------------------------------------------------
    Irrep   Nso     Nmo     Nalpha   Nbeta   Ndocc  Nsocc
   -------------------------------------------------------
     A         19      19       0       0       0       0
     B         19      19       0       0       0       0
   -------------------------------------------------------
    Total      38      38       9       9       9       0
   -------------------------------------------------------

 OEINTS: Overlap, kinetic, potential, dipole, and quadrupole integrals
         stored in file 35.

  ==> Integral Setup <==

  ==> DFJK: Density-Fitted J/K Matrices <==

    J tasked:                  Yes
    K tasked:                  Yes
    wK tasked:                  No
    OpenMP threads:              8
    Integrals threads:           8
    Memory (MB):               183
    Algorithm:                Core
    Integral Cache:           NONE
    Schwarz Cutoff:          1E-12
    Fitting Condition:       1E-12

   => Auxiliary Basis Set <=

  Basis Set: 
    Number of shells: 66
    Number of basis function: 186
    Number of Cartesian functions: 212
    Spherical Harmonics?: true
    Max angular momentum: 3

  Minimum eigenvalue in the overlap matrix is 2.3322857571E-02.
  Using Symmetric Orthogonalization.
  SCF Guess: Reading in previously saved MOs, projecting if necessary.

  Using orbitals from previous SCF, no projection.
  Recomputing DOCC and SOCC from number of alpha and beta electrons from previous calculation.
              A     B 
    DOCC [     5,    4 ]

  ==> Iterations <==

                           Total Energy        Delta E     RMS |[F,P]|

   @DF-RHF iter   0:  -150.88139127265370   -1.50881e+02   1.02839e-02 
   @DF-RHF iter   1:  -150.78427309933087    9.71182e-02   1.52236e-03 
   @DF-RHF iter   2:  -150.78548166756141   -1.20857e-03   5.72752e-04 DIIS
   @DF-RHF iter   3:  -150.78567884944871   -1.97182e-04   2.61075e-04 DIIS
   @DF-RHF iter   4:  -150.78574925564652   -7.04062e-05   9.60360e-05 DIIS
   @DF-RHF iter   5:  -150.78576101299868   -1.17574e-05   3.44629e-05 DIIS
   @DF-RHF iter   6:  -150.78576311590530   -2.10291e-06   1.20049e-05 DIIS
   @DF-RHF iter   7:  -150.78576338053043   -2.64625e-07   2.55006e-06 DIIS
   @DF-RHF iter   8:  -150.78576338964288   -9.11245e-09   3.76662e-07 DIIS
   @DF-RHF iter   9:  -150.78576338979056   -1.47679e-10   7.09023e-08 DIIS
   @DF-RHF iter  10:  -150.78576338979443   -3.86535e-12   8.35470e-09 DIIS

  ==> Post-Iterations <==

    Orbital Energies (a.u.)
    -----------------------

    Doubly Occupied:                                                      

       1A    -20.619834     1B    -20.619515     2A     -1.485164  
       2B     -1.201031     3B     -0.709872     3A     -0.708439  
       4A     -0.609535     5A     -0.509408     4B     -0.466595  

    Virtual:                                                              

       6A      0.189368     5B      0.197587     6B      0.329080  
       7B      0.821331     7A      0.825869     8B      1.118707  
       8A      1.139668     9A      1.150071     9B      1.216773  
      10B      1.282365    10A      1.337448    11B      1.463938  
      11A      1.513879    12B      1.645608    12A      1.684584  
      13A      1.955556    13B      2.014761    14A      2.437791  
      14B      2.441660    15A      2.719269    16A      2.799270  
      15B      2.885525    17A      3.247925    16B      3.291570  
      17B      3.480611    18A      3.583184    18B      3.908975  
      19A      3.939765    19B      4.269597  

    Final Occupation by Irrep:
              A     B 
    DOCC [     5,    4 ]

  Energy converged.

  @DF-RHF Final Energy:  -150.78576338979443

   => Energetics <=

    Nuclear Repulsion Energy =             37.5059826586241556
    One-Electron Energy =                -282.7247041847410856
    Two-Electron Energy =                  94.4329581363224548
    DFT Exchange-Correlation Energy =       0.0000000000000000
    Empirical Dispersion Energy =           0.0000000000000000
    PCM Polarization Energy =               0.0000000000000000
    EFP Energy =                            0.0000000000000000
    Total Energy =                       -150.7857633897944538

    Alert: EFP and PCM quantities not currently incorporated into SCF psivars.

Properties will be evaluated at   0.000000,   0.000000,   0.000000 Bohr
  ==> Properties <==


Properties computed using the SCF density matrix

  Nuclear Dipole Moment: (a.u.)
     X:     0.0000      Y:    -0.0000      Z:     2.4662

  Electronic Dipole Moment: (a.u.)
     X:     0.0000      Y:     0.0000      Z:    -1.7510

  Dipole Moment: (a.u.)
     X:     0.0000      Y:    -0.0000      Z:     0.7152     Total:     0.7152

  Dipole Moment: (Debye)
     X:     0.0000      Y:    -0.0000      Z:     1.8178     Total:     1.8178


  Saving occupied orbitals to File 180.

*** tstop() called on gimli.chem.bethel.edu at Tue Jan 12 11:04:11 2016
Module time:
	user time   =       0.72 seconds =       0.01 minutes
	system time =       0.01 seconds =       0.00 minutes
	total time  =          1 seconds =       0.02 minutes
Total time:
	user time   =       2.50 seconds =       0.04 minutes
	system time =       0.10 seconds =       0.00 minutes
	total time  =          2 seconds =       0.03 minutes

*** tstart() called on gimli.chem.bethel.edu
*** at Tue Jan 12 11:04:11 2016


         ------------------------------------------------------------
                                   SCF GRAD                          
                          Rob Parrish, Justin Turney,                
                       Andy Simmonett, and Alex Sokolov              
         ------------------------------------------------------------

  ==> Geometry <==

    Molecular point group: c2
    Full point group: C2

    Geometry (in Angstrom), charge = 0, multiplicity = 1:

       Center              X                  Y                   Z               Mass       
    ------------   -----------------  -----------------  -----------------  -----------------
           H          0.900000000000     0.800000000000     0.500000000000     1.007825032070
           O          0.070262303332     0.704040033970     0.019066288845    15.994914619560
           O         -0.070262303332    -0.704040033970     0.019066288845    15.994914619560
           H         -0.900000000000    -0.800000000000     0.500000000000     1.007825032070

  Nuclear repulsion =   37.505982658624156

  ==> Basis Set <==

  Basis Set: CC-PVDZ
    Number of shells: 18
    Number of basis function: 38
    Number of Cartesian functions: 40
    Spherical Harmonics?: true
    Max angular momentum: 2

  ==> DFJKGrad: Density-Fitted SCF Gradients <==

    Gradient:                    1
    J tasked:                  Yes
    K tasked:                  Yes
    wK tasked:                  No
    OpenMP threads:              8
    Integrals threads:           8
    Memory (MB):               183
    Schwarz Cutoff:          0E+00
    Fitting Condition:       1E-12

   => Auxiliary Basis Set <=

  Basis Set: 
    Number of shells: 66
    Number of basis function: 186
    Number of Cartesian functions: 212
    Spherical Harmonics?: true
    Max angular momentum: 3


  -Total Gradient:
     Atom            X                  Y                   Z
    ------   -----------------  -----------------  -----------------
       1        0.014763327287    -0.000875236726     0.008731745583
       2       -0.016579988723     0.013170603613    -0.008731745583
       3        0.016579988721    -0.013170603612    -0.008731745582
       4       -0.014763327285     0.000875236726     0.008731745582


*** tstop() called on gimli.chem.bethel.edu at Tue Jan 12 11:04:11 2016
Module time:
	user time   =       1.02 seconds =       0.02 minutes
	system time =       0.07 seconds =       0.00 minutes
	total time  =          0 seconds =       0.00 minutes
Total time:
	user time   =       3.52 seconds =       0.06 minutes
	system time =       0.17 seconds =       0.00 minutes
	total time  =          2 seconds =       0.03 minutes
CURRENT ENERGY: -150.7857633898

			-----------------------------------------
			 OPTKING 2.0: for geometry optimizations 
			  - R.A. King,  Bethel University        
			-----------------------------------------

	Previous internal coordinate definitions found.
	---Fragment 1 Geometry and Gradient---
	 H           1.7007535196        1.5117809063        0.9448630664
	 O           0.1327765108        1.3304428508        0.0360300643
	 O          -0.1327765108       -1.3304428508        0.0360300643
	 H          -1.7007535196       -1.5117809063        0.9448630664
	             0.0147633273       -0.0008752367        0.0087317456
	            -0.0165799887        0.0131706036       -0.0087317456
	             0.0165799887       -0.0131706036       -0.0087317456
	            -0.0147633273        0.0008752367        0.0087317456

	---Fragment 1 Intrafragment Coordinates---
	 - Coordinate -           - BOHR/RAD -       - ANG/DEG -
	*R(1,X)           =         1.700754	       0.900000
	*R(1,Y)           =         1.511781	       0.800000
	*R(1,Z)           =         0.944863	       0.500000
	 R(2,X)           =         0.132777	       0.070262
	 R(2,Y)           =         1.330443	       0.704040
	 R(2,Z)           =         0.036030	       0.019066
	 R(3,X)           =        -0.132777	      -0.070262
	 R(3,Y)           =        -1.330443	      -0.704040
	 R(3,Z)           =         0.036030	       0.019066
	*R(4,X)           =        -1.700754	      -0.900000
	*R(4,Y)           =        -1.511781	      -0.800000
	*R(4,Z)           =         0.944863	       0.500000

	Current energy   :      -150.7857633898

	Energy change for the previous step:
		Projected    :        -0.0252321517
		Actual       :        -0.0162007031

	Performing BFGS update.
	Previous computed or guess Hessian on step 1.
	Steps to be used in Hessian update: 1
	Taking RFO optimization step.
	Going to follow RFO solution 1.
	Using RFO vector 1.
	Norm of target step-size    0.07360
	Projected energy change by RFO approximation:        -0.0014216907

	Back-transformation to cartesian coordinates...
	Successfully converged to displaced geometry.

	Back-transformation to cartesian coordinates to adjust frozen coordinates...
	Successfully converged to displaced geometry.

	--- Internal Coordinate Step in ANG or DEG, aJ/ANG or AJ/DEG ---
	 ---------------------------------------------------------------------------
	   Coordinate                Previous        Force       Change         New 
	   ----------                --------       ------       ------       ------
	    1 *R(1,X)         =      0.900000     0.000000     0.000000     0.900000
	    2 *R(1,Y)         =      0.800000     0.000000     0.000000     0.800000
	    3 *R(1,Z)         =      0.500000     0.000000     0.000000     0.500000
	    4 R(2,X)          =      0.070262     0.136598     0.009612     0.079874
	    5 R(2,Y)          =      0.704040    -0.108509    -0.006135     0.697905
	    6 R(2,Z)          =      0.019066     0.071938     0.025070     0.044136
	    7 R(3,X)          =     -0.070262    -0.136598    -0.009612    -0.079874
	    8 R(3,Y)          =     -0.704040     0.108509     0.006135    -0.697905
	    9 R(3,Z)          =      0.019066     0.071938     0.025070     0.044136
	   10 *R(4,X)         =     -0.900000     0.000000     0.000000    -0.900000
	   11 *R(4,Y)         =     -0.800000     0.000000     0.000000    -0.800000
	   12 *R(4,Z)         =      0.500000     0.000000     0.000000     0.500000
	 ---------------------------------------------------------------------------

  ==> Convergence Check <==

  Measures of convergence in internal coordinates in au.
  Criteria marked as inactive (o), active & met (*), and active & unmet ( ).
  ---------------------------------------------------------------------------------------------
   Step     Total Energy     Delta E     MAX Force     RMS Force      MAX Disp      RMS Disp   
  ---------------------------------------------------------------------------------------------
    Convergence Criteria    1.00e-06 *    3.00e-04 *             o    1.20e-03 *             o
  ---------------------------------------------------------------------------------------------
      2    -150.78576339   -1.62e-02      1.66e-02      9.35e-03 o    4.74e-02      2.12e-02 o  ~
  ---------------------------------------------------------------------------------------------

	Writing optimization data to binary file.
	Structure for next step:
	Cartesian Geometry (in Angstrom)
	    H     0.9000000000   0.8000000000   0.5000000000
	    O     0.0798742935   0.6979046275   0.0441361534
	    O    -0.0798742935  -0.6979046275   0.0441361534
	    H    -0.9000000000  -0.8000000000   0.5000000000
			--------------------------
			 OPTKING Finished Execution 
			--------------------------

    Structure for next step:
    Molecular point group: c2
    Full point group: C2

    Geometry (in Angstrom), charge = 0, multiplicity = 1:

    H            0.900000000000     0.800000000000     0.500000000000
    O            0.079874293480     0.697904627490     0.044136153377
    O           -0.079874293480    -0.697904627490     0.044136153377
    H           -0.900000000000    -0.800000000000     0.500000000000

gradient() will perform analytic gradient computation.

*** tstart() called on gimli.chem.bethel.edu
*** at Tue Jan 12 11:04:12 2016

    There are an even number of electrons - assuming singlet.
    Specify the multiplicity with the MULTP option in the
    input if this is incorrect


         ---------------------------------------------------------
                                   SCF
            by Justin Turney, Rob Parrish, and Andy Simmonett
                              RHF Reference
                        8 Threads,    256 MiB Core
         ---------------------------------------------------------

  ==> Geometry <==

    Molecular point group: c2
    Full point group: C2

    Geometry (in Angstrom), charge = 0, multiplicity = 1:

       Center              X                  Y                   Z               Mass       
    ------------   -----------------  -----------------  -----------------  -----------------
           H          0.900000000000     0.800000000000     0.500000000000     1.007825032070
           O          0.079874293480     0.697904627490     0.044136153377    15.994914619560
           O         -0.079874293480    -0.697904627490     0.044136153377    15.994914619560
           H         -0.900000000000    -0.800000000000     0.500000000000     1.007825032070

  Running in c2 symmetry.

  Rotational constants: A =      9.70696  B =      0.93116  C =      0.90109 [cm^-1]
  Rotational constants: A = 291007.19852  B =  27915.47508  C =  27013.91616 [MHz]
  Nuclear repulsion =   37.880457717973798

  Charge       = 0
  Multiplicity = 1
  Electrons    = 18
  Nalpha       = 9
  Nbeta        = 9

  ==> Algorithm <==

  SCF Algorithm Type is DF.
  DIIS enabled.
  MOM disabled.
  Fractional occupation disabled.
  Guess Type is READ.
  Energy threshold   = 1.00e-08
  Density threshold  = 1.00e-08
  Integral threshold = 0.00e+00

  ==> Primary Basis <==

  Basis Set: CC-PVDZ
    Number of shells: 18
    Number of basis function: 38
    Number of Cartesian functions: 40
    Spherical Harmonics?: true
    Max angular momentum: 2

  ==> Pre-Iterations <==

   -------------------------------------------------------
    Irrep   Nso     Nmo     Nalpha   Nbeta   Ndocc  Nsocc
   -------------------------------------------------------
     A         19      19       0       0       0       0
     B         19      19       0       0       0       0
   -------------------------------------------------------
    Total      38      38       9       9       9       0
   -------------------------------------------------------

 OEINTS: Overlap, kinetic, potential, dipole, and quadrupole integrals
         stored in file 35.

  ==> Integral Setup <==

  ==> DFJK: Density-Fitted J/K Matrices <==

    J tasked:                  Yes
    K tasked:                  Yes
    wK tasked:                  No
    OpenMP threads:              8
    Integrals threads:           8
    Memory (MB):               183
    Algorithm:                Core
    Integral Cache:           NONE
    Schwarz Cutoff:          1E-12
    Fitting Condition:       1E-12

   => Auxiliary Basis Set <=

  Basis Set: 
    Number of shells: 66
    Number of basis function: 186
    Number of Cartesian functions: 212
    Spherical Harmonics?: true
    Max angular momentum: 3

  Minimum eigenvalue in the overlap matrix is 2.2533232968E-02.
  Using Symmetric Orthogonalization.
  SCF Guess: Reading in previously saved MOs, projecting if necessary.

  Using orbitals from previous SCF, no projection.
  Recomputing DOCC and SOCC from number of alpha and beta electrons from previous calculation.
              A     B 
    DOCC [     5,    4 ]

  ==> Iterations <==

                           Total Energy        Delta E     RMS |[F,P]|

   @DF-RHF iter   0:  -150.82099557589083   -1.50821e+02   2.98088e-03 
   @DF-RHF iter   1:  -150.78642871027876    3.45669e-02   3.91289e-04 
   @DF-RHF iter   2:  -150.78649835510279   -6.96448e-05   1.42277e-04 DIIS
   @DF-RHF iter   3:  -150.78650892781275   -1.05727e-05   6.01784e-05 DIIS
   @DF-RHF iter   4:  -150.78651233736323   -3.40955e-06   2.15232e-05 DIIS
   @DF-RHF iter   5:  -150.78651291160264   -5.74239e-07   6.59171e-06 DIIS
   @DF-RHF iter   6:  -150.78651298023425   -6.86316e-08   2.37228e-06 DIIS
   @DF-RHF iter   7:  -150.78651299046456   -1.02303e-08   6.45587e-07 DIIS
   @DF-RHF iter   8:  -150.78651299118610   -7.21542e-10   1.08442e-07 DIIS
   @DF-RHF iter   9:  -150.78651299119997   -1.38698e-11   2.83125e-08 DIIS
   @DF-RHF iter  10:  -150.78651299120114   -1.16529e-12   5.32540e-09 DIIS

  ==> Post-Iterations <==

    Orbital Energies (a.u.)
    -----------------------

    Doubly Occupied:                                                      

       1A    -20.617396     1B    -20.617070     2A     -1.493421  
       2B     -1.207996     3A     -0.718001     3B     -0.714272  
       4A     -0.614217     5A     -0.510642     4B     -0.464855  

    Virtual:                                                              

       6A      0.193355     5B      0.200184     6B      0.338146  
       7B      0.836101     7A      0.845589     8B      1.118064  
       8A      1.137125     9A      1.151734     9B      1.220921  
      10B      1.279125    10A      1.336729    11B      1.473310  
      11A      1.518602    12B      1.648760    12A      1.690888  
      13A      1.953328    13B      2.018508    14A      2.483473  
      14B      2.491104    15A      2.711635    16A      2.809955  
      15B      2.894940    17A      3.267538    16B      3.308927  
      17B      3.496887    18A      3.606659    18B      3.929401  
      19A      3.967274    19B      4.281985  

    Final Occupation by Irrep:
              A     B 
    DOCC [     5,    4 ]

  Energy converged.

  @DF-RHF Final Energy:  -150.78651299120114

   => Energetics <=

    Nuclear Repulsion Energy =             37.8804577179737976
    One-Electron Energy =                -283.4182012649123408
    Two-Electron Energy =                  94.7512305557374503
    DFT Exchange-Correlation Energy =       0.0000000000000000
    Empirical Dispersion Energy =           0.0000000000000000
    PCM Polarization Energy =               0.0000000000000000
    EFP Energy =                            0.0000000000000000
    Total Energy =                       -150.7865129912011071

    Alert: EFP and PCM quantities not currently incorporated into SCF psivars.

Properties will be evaluated at   0.000000,   0.000000,   0.000000 Bohr
  ==> Properties <==


Properties computed using the SCF density matrix

  Nuclear Dipole Moment: (a.u.)
     X:    -0.0000      Y:    -0.0000      Z:     3.2242

  Electronic Dipole Moment: (a.u.)
     X:     0.0000      Y:     0.0000      Z:    -2.5383

  Dipole Moment: (a.u.)
     X:    -0.0000      Y:    -0.0000      Z:     0.6860     Total:     0.6860

  Dipole Moment: (Debye)
     X:    -0.0000      Y:    -0.0000      Z:     1.7435     Total:     1.7435


  Saving occupied orbitals to File 180.

*** tstop() called on gimli.chem.bethel.edu at Tue Jan 12 11:04:12 2016
Module time:
	user time   =       0.73 seconds =       0.01 minutes
	system time =       0.00 seconds =       0.00 minutes
	total time  =          0 seconds =       0.00 minutes
Total time:
	user time   =       4.27 seconds =       0.07 minutes
	system time =       0.17 seconds =       0.00 minutes
	total time  =          3 seconds =       0.05 minutes

*** tstart() called on gimli.chem.bethel.edu
*** at Tue Jan 12 11:04:12 2016


         ------------------------------------------------------------
                                   SCF GRAD                          
                          Rob Parrish, Justin Turney,                
                       Andy Simmonett, and Alex Sokolov              
         ------------------------------------------------------------

  ==> Geometry <==

    Molecular point group: c2
    Full point group: C2

    Geometry (in Angstrom), charge = 0, multiplicity = 1:

       Center              X                  Y                   Z               Mass       
    ------------   -----------------  -----------------  -----------------  -----------------
           H          0.900000000000     0.800000000000     0.500000000000     1.007825032070
           O          0.079874293480     0.697904627490     0.044136153377    15.994914619560
           O         -0.079874293480    -0.697904627490     0.044136153377    15.994914619560
           H         -0.900000000000    -0.800000000000     0.500000000000     1.007825032070

  Nuclear repulsion =   37.880457717973805

  ==> Basis Set <==

  Basis Set: CC-PVDZ
    Number of shells: 18
    Number of basis function: 38
    Number of Cartesian functions: 40
    Spherical Harmonics?: true
    Max angular momentum: 2

  ==> DFJKGrad: Density-Fitted SCF Gradients <==

    Gradient:                    1
    J tasked:                  Yes
    K tasked:                  Yes
    wK tasked:                  No
    OpenMP threads:              8
    Integrals threads:           8
    Memory (MB):               183
    Schwarz Cutoff:          0E+00
    Fitting Condition:       1E-12

   => Auxiliary Basis Set <=

  Basis Set: 
    Number of shells: 66
    Number of basis function: 186
    Number of Cartesian functions: 212
    Spherical Harmonics?: true
    Max angular momentum: 3


  -Total Gradient:
     Atom            X                  Y                   Z
    ------   -----------------  -----------------  -----------------
       1       -0.004231945852    -0.000241518707    -0.002725599221
       2        0.005501918066     0.008408490683     0.002725599221
       3       -0.005501918057    -0.008408490680     0.002725599216
       4        0.004231945842     0.000241518704    -0.002725599216


*** tstop() called on gimli.chem.bethel.edu at Tue Jan 12 11:04:13 2016
Module time:
	user time   =       0.99 seconds =       0.02 minutes
	system time =       0.07 seconds =       0.00 minutes
	total time  =          1 seconds =       0.02 minutes
Total time:
	user time   =       5.27 seconds =       0.09 minutes
	system time =       0.24 seconds =       0.00 minutes
	total time  =          4 seconds =       0.07 minutes
CURRENT ENERGY: -150.7865129912

			-----------------------------------------
			 OPTKING 2.0: for geometry optimizations 
			  - R.A. King,  Bethel University        
			-----------------------------------------

	Previous internal coordinate definitions found.
	---Fragment 1 Geometry and Gradient---
	 H           1.7007535196        1.5117809063        0.9448630664
	 O           0.1509405397        1.3188486128        0.0834052424
	 O          -0.1509405397       -1.3188486128        0.0834052424
	 H          -1.7007535196       -1.5117809063        0.9448630664
	            -0.0042319459       -0.0002415187       -0.0027255992
	             0.0055019181        0.0084084907        0.0027255992
	            -0.0055019181       -0.0084084907        0.0027255992
	             0.0042319458        0.0002415187       -0.0027255992

	---Fragment 1 Intrafragment Coordinates---
	 - Coordinate -           - BOHR/RAD -       - ANG/DEG -
	*R(1,X)           =         1.700754	       0.900000
	*R(1,Y)           =         1.511781	       0.800000
	*R(1,Z)           =         0.944863	       0.500000
	 R(2,X)           =         0.150941	       0.079874
	 R(2,Y)           =         1.318849	       0.697905
	 R(2,Z)           =         0.083405	       0.044136
	 R(3,X)           =        -0.150941	      -0.079874
	 R(3,Y)           =        -1.318849	      -0.697905
	 R(3,Z)           =         0.083405	       0.044136
	*R(4,X)           =        -1.700754	      -0.900000
	*R(4,Y)           =        -1.511781	      -0.800000
	*R(4,Z)           =         0.944863	       0.500000

	Current energy   :      -150.7865129912

	Energy change for the previous step:
		Projected    :        -0.0014216907
		Actual       :        -0.0007496014

	Performing BFGS update.
	Previous computed or guess Hessian on step 1.
	Steps to be used in Hessian update: 2 1
	Taking RFO optimization step.
	Going to follow RFO solution 1.
	Using RFO vector 1.
	Norm of target step-size    0.01618
	Projected energy change by RFO approximation:        -0.0002297802

	Back-transformation to cartesian coordinates...
	Successfully converged to displaced geometry.

	Back-transformation to cartesian coordinates to adjust frozen coordinates...
	Successfully converged to displaced geometry.

	--- Internal Coordinate Step in ANG or DEG, aJ/ANG or AJ/DEG ---
	 ---------------------------------------------------------------------------
	   Coordinate                Previous        Force       Change         New 
	   ----------                --------       ------       ------       ------
	    1 *R(1,X)         =      0.900000     0.000000     0.000000     0.900000
	    2 *R(1,Y)         =      0.800000     0.000000     0.000000     0.800000
	    3 *R(1,Z)         =      0.500000     0.000000     0.000000     0.500000
	    4 R(2,X)          =      0.079874    -0.045329    -0.003848     0.076026
	    5 R(2,Y)          =      0.697905    -0.069275    -0.003206     0.694698
	    6 R(2,Z)          =      0.044136    -0.022455    -0.003403     0.040733
	    7 R(3,X)          =     -0.079874     0.045329     0.003848    -0.076026
	    8 R(3,Y)          =     -0.697905     0.069275     0.003206    -0.694698
	    9 R(3,Z)          =      0.044136    -0.022455    -0.003403     0.040733
	   10 *R(4,X)         =     -0.900000     0.000000     0.000000    -0.900000
	   11 *R(4,Y)         =     -0.800000     0.000000     0.000000    -0.800000
	   12 *R(4,Z)         =      0.500000     0.000000     0.000000     0.500000
	 ---------------------------------------------------------------------------

  ==> Convergence Check <==

  Measures of convergence in internal coordinates in au.
  Criteria marked as inactive (o), active & met (*), and active & unmet ( ).
  ---------------------------------------------------------------------------------------------
   Step     Total Energy     Delta E     MAX Force     RMS Force      MAX Disp      RMS Disp   
  ---------------------------------------------------------------------------------------------
    Convergence Criteria    1.00e-06 *    3.00e-04 *             o    1.20e-03 *             o
  ---------------------------------------------------------------------------------------------
      3    -150.78651299   -7.50e-04      8.41e-03      4.25e-03 o    7.27e-03      4.67e-03 o  ~
  ---------------------------------------------------------------------------------------------

	Writing optimization data to binary file.
	Structure for next step:
	Cartesian Geometry (in Angstrom)
	    H     0.9000000000   0.8000000000   0.5000000000
	    O     0.0760264144   0.6946983778   0.0407329054
	    O    -0.0760264144  -0.6946983778   0.0407329054
	    H    -0.9000000000  -0.8000000000   0.5000000000
			--------------------------
			 OPTKING Finished Execution 
			--------------------------

    Structure for next step:
    Molecular point group: c2
    Full point group: C2

    Geometry (in Angstrom), charge = 0, multiplicity = 1:

    H            0.900000000000     0.800000000000     0.500000000000
    O            0.076026414358     0.694698377784     0.040732905385
    O           -0.076026414358    -0.694698377784     0.040732905385
    H           -0.900000000000    -0.800000000000     0.500000000000

gradient() will perform analytic gradient computation.

*** tstart() called on gimli.chem.bethel.edu
*** at Tue Jan 12 11:04:13 2016

    There are an even number of electrons - assuming singlet.
    Specify the multiplicity with the MULTP option in the
    input if this is incorrect


         ---------------------------------------------------------
                                   SCF
            by Justin Turney, Rob Parrish, and Andy Simmonett
                              RHF Reference
                        8 Threads,    256 MiB Core
         ---------------------------------------------------------

  ==> Geometry <==

    Molecular point group: c2
    Full point group: C2

    Geometry (in Angstrom), charge = 0, multiplicity = 1:

       Center              X                  Y                   Z               Mass       
    ------------   -----------------  -----------------  -----------------  -----------------
           H          0.900000000000     0.800000000000     0.500000000000     1.007825032070
           O          0.076026414358     0.694698377784     0.040732905385    15.994914619560
           O         -0.076026414358    -0.694698377784     0.040732905385    15.994914619560
           H         -0.900000000000    -0.800000000000     0.500000000000     1.007825032070

  Running in c2 symmetry.

  Rotational constants: A =      9.68833  B =      0.94071  C =      0.90896 [cm^-1]
  Rotational constants: A = 290448.97051  B =  28201.86163  C =  27249.92057 [MHz]
  Nuclear repulsion =   37.964121452091113

  Charge       = 0
  Multiplicity = 1
  Electrons    = 18
  Nalpha       = 9
  Nbeta        = 9

  ==> Algorithm <==

  SCF Algorithm Type is DF.
  DIIS enabled.
  MOM disabled.
  Fractional occupation disabled.
  Guess Type is READ.
  Energy threshold   = 1.00e-08
  Density threshold  = 1.00e-08
  Integral threshold = 0.00e+00

  ==> Primary Basis <==

  Basis Set: CC-PVDZ
    Number of shells: 18
    Number of basis function: 38
    Number of Cartesian functions: 40
    Spherical Harmonics?: true
    Max angular momentum: 2

  ==> Pre-Iterations <==

   -------------------------------------------------------
    Irrep   Nso     Nmo     Nalpha   Nbeta   Ndocc  Nsocc
   -------------------------------------------------------
     A         19      19       0       0       0       0
     B         19      19       0       0       0       0
   -------------------------------------------------------
    Total      38      38       9       9       9       0
   -------------------------------------------------------

 OEINTS: Overlap, kinetic, potential, dipole, and quadrupole integrals
         stored in file 35.

  ==> Integral Setup <==

  ==> DFJK: Density-Fitted J/K Matrices <==

    J tasked:                  Yes
    K tasked:                  Yes
    wK tasked:                  No
    OpenMP threads:              8
    Integrals threads:           8
    Memory (MB):               183
    Algorithm:                Core
    Integral Cache:           NONE
    Schwarz Cutoff:          1E-12
    Fitting Condition:       1E-12

   => Auxiliary Basis Set <=

  Basis Set: 
    Number of shells: 66
    Number of basis function: 186
    Number of Cartesian functions: 212
    Spherical Harmonics?: true
    Max angular momentum: 3

  Minimum eigenvalue in the overlap matrix is 2.2249085370E-02.
  Using Symmetric Orthogonalization.
  SCF Guess: Reading in previously saved MOs, projecting if necessary.

  Using orbitals from previous SCF, no projection.
  Recomputing DOCC and SOCC from number of alpha and beta electrons from previous calculation.
              A     B 
    DOCC [     5,    4 ]

  ==> Iterations <==

                           Total Energy        Delta E     RMS |[F,P]|

   @DF-RHF iter   0:  -150.78206328764352   -1.50782e+02   1.14132e-03 
   @DF-RHF iter   1:  -150.78661445753781   -4.55117e-03   1.38132e-04 
   @DF-RHF iter   2:  -150.78662147543125   -7.01789e-06   4.32745e-05 DIIS
   @DF-RHF iter   3:  -150.78662218359878   -7.08168e-07   1.47089e-05 DIIS
   @DF-RHF iter   4:  -150.78662235300723   -1.69408e-07   6.04792e-06 DIIS
   @DF-RHF iter   5:  -150.78662239231662   -3.93094e-08   2.41879e-06 DIIS
   @DF-RHF iter   6:  -150.78662240254826   -1.02316e-08   6.20612e-07 DIIS
   @DF-RHF iter   7:  -150.78662240323649   -6.88232e-10   1.69894e-07 DIIS
   @DF-RHF iter   8:  -150.78662240327944   -4.29452e-11   3.36779e-08 DIIS
   @DF-RHF iter   9:  -150.78662240328066   -1.22213e-12   6.63993e-09 DIIS

  ==> Post-Iterations <==

    Orbital Energies (a.u.)
    -----------------------

    Doubly Occupied:                                                      

       1A    -20.616917     1B    -20.616584     2A     -1.495827  
       2B     -1.203995     3A     -0.717692     3B     -0.714549  
       4A     -0.615650     5A     -0.509240     4B     -0.462985  

    Virtual:                                                              

       6A      0.192584     5B      0.200530     6B      0.343330  
       7B      0.832041     7A      0.840771     8B      1.118449  
       8A      1.136177     9A      1.151887     9B      1.220272  
      10B      1.280573    10A      1.335198    11B      1.470653  
      11A      1.517494    12B      1.648787    12A      1.690519  
      13A      1.954402    13B      2.019481    14A      2.473107  
      14B      2.478826    15A      2.706642    16A      2.820290  
      15B      2.887838    17A      3.261051    16B      3.304589  
      17B      3.505264    18A      3.611244    18B      3.926755  
      19A      3.960864    19B      4.285922  

    Final Occupation by Irrep:
              A     B 
    DOCC [     5,    4 ]

  Energy converged.

  @DF-RHF Final Energy:  -150.78662240328066

   => Energetics <=

    Nuclear Repulsion Energy =             37.9641214520911134
    One-Electron Energy =                -283.5946086406357836
    Two-Electron Energy =                  94.8438647852640173
    DFT Exchange-Correlation Energy =       0.0000000000000000
    Empirical Dispersion Energy =           0.0000000000000000
    PCM Polarization Energy =               0.0000000000000000
    EFP Energy =                            0.0000000000000000
    Total Energy =                       -150.7866224032806599

    Alert: EFP and PCM quantities not currently incorporated into SCF psivars.

Properties will be evaluated at   0.000000,   0.000000,   0.000000 Bohr
  ==> Properties <==


Properties computed using the SCF density matrix

  Nuclear Dipole Moment: (a.u.)
     X:     0.0000      Y:    -0.0000      Z:     3.1213

  Electronic Dipole Moment: (a.u.)
     X:     0.0000      Y:     0.0000      Z:    -2.4323

  Dipole Moment: (a.u.)
     X:     0.0000      Y:    -0.0000      Z:     0.6890     Total:     0.6890

  Dipole Moment: (Debye)
     X:     0.0000      Y:    -0.0000      Z:     1.7512     Total:     1.7512


  Saving occupied orbitals to File 180.

*** tstop() called on gimli.chem.bethel.edu at Tue Jan 12 11:04:13 2016
Module time:
	user time   =       0.71 seconds =       0.01 minutes
	system time =       0.01 seconds =       0.00 minutes
	total time  =          0 seconds =       0.00 minutes
Total time:
	user time   =       6.01 seconds =       0.10 minutes
	system time =       0.25 seconds =       0.00 minutes
	total time  =          4 seconds =       0.07 minutes

*** tstart() called on gimli.chem.bethel.edu
*** at Tue Jan 12 11:04:13 2016


         ------------------------------------------------------------
                                   SCF GRAD                          
                          Rob Parrish, Justin Turney,                
                       Andy Simmonett, and Alex Sokolov              
         ------------------------------------------------------------

  ==> Geometry <==

    Molecular point group: c2
    Full point group: C2

    Geometry (in Angstrom), charge = 0, multiplicity = 1:

       Center              X                  Y                   Z               Mass       
    ------------   -----------------  -----------------  -----------------  -----------------
           H          0.900000000000     0.800000000000     0.500000000000     1.007825032070
           O          0.076026414358     0.694698377784     0.040732905385    15.994914619560
           O         -0.076026414358    -0.694698377784     0.040732905385    15.994914619560
           H         -0.900000000000    -0.800000000000     0.500000000000     1.007825032070

  Nuclear repulsion =   37.964121452091106

  ==> Basis Set <==

  Basis Set: CC-PVDZ
    Number of shells: 18
    Number of basis function: 38
    Number of Cartesian functions: 40
    Spherical Harmonics?: true
    Max angular momentum: 2

  ==> DFJKGrad: Density-Fitted SCF Gradients <==

    Gradient:                    1
    J tasked:                  Yes
    K tasked:                  Yes
    wK tasked:                  No
    OpenMP threads:              8
    Integrals threads:           8
    Memory (MB):               183
    Schwarz Cutoff:          0E+00
    Fitting Condition:       1E-12

   => Auxiliary Basis Set <=

  Basis Set: 
    Number of shells: 66
    Number of basis function: 186
    Number of Cartesian functions: 212
    Spherical Harmonics?: true
    Max angular momentum: 3


  -Total Gradient:
     Atom            X                  Y                   Z
    ------   -----------------  -----------------  -----------------
       1        0.001312814335    -0.000417000214     0.000390030378
       2       -0.001756687673     0.002698837461    -0.000390030377
       3        0.001756687681    -0.002698837460    -0.000390030382
       4       -0.001312814343     0.000417000213     0.000390030382


*** tstop() called on gimli.chem.bethel.edu at Tue Jan 12 11:04:14 2016
Module time:
	user time   =       1.00 seconds =       0.02 minutes
	system time =       0.06 seconds =       0.00 minutes
	total time  =          1 seconds =       0.02 minutes
Total time:
	user time   =       7.01 seconds =       0.12 minutes
	system time =       0.31 seconds =       0.01 minutes
	total time  =          5 seconds =       0.08 minutes
CURRENT ENERGY: -150.7866224033

			-----------------------------------------
			 OPTKING 2.0: for geometry optimizations 
			  - R.A. King,  Bethel University        
			-----------------------------------------

	Previous internal coordinate definitions found.
	---Fragment 1 Geometry and Gradient---
	 H           1.7007535196        1.5117809063        0.9448630664
	 O           0.1436691020        1.3127896790        0.0769740358
	 O          -0.1436691020       -1.3127896790        0.0769740358
	 H          -1.7007535196       -1.5117809063        0.9448630664
	             0.0013128143       -0.0004170002        0.0003900304
	            -0.0017566877        0.0026988375       -0.0003900304
	             0.0017566877       -0.0026988375       -0.0003900304
	            -0.0013128143        0.0004170002        0.0003900304

	---Fragment 1 Intrafragment Coordinates---
	 - Coordinate -           - BOHR/RAD -       - ANG/DEG -
	*R(1,X)           =         1.700754	       0.900000
	*R(1,Y)           =         1.511781	       0.800000
	*R(1,Z)           =         0.944863	       0.500000
	 R(2,X)           =         0.143669	       0.076026
	 R(2,Y)           =         1.312790	       0.694698
	 R(2,Z)           =         0.076974	       0.040733
	 R(3,X)           =        -0.143669	      -0.076026
	 R(3,Y)           =        -1.312790	      -0.694698
	 R(3,Z)           =         0.076974	       0.040733
	*R(4,X)           =        -1.700754	      -0.900000
	*R(4,Y)           =        -1.511781	      -0.800000
	*R(4,Z)           =         0.944863	       0.500000

	Current energy   :      -150.7866224033

	Energy change for the previous step:
		Projected    :        -0.0002297802
		Actual       :        -0.0001094121

	Performing BFGS update.
	Previous computed or guess Hessian on step 1.
	Steps to be used in Hessian update: 3 2
	Taking RFO optimization step.
	Going to follow RFO solution 1.
	Using RFO vector 1.
	Norm of target step-size    0.01037
	Projected energy change by RFO approximation:        -0.0000505000

	Back-transformation to cartesian coordinates...
	Successfully converged to displaced geometry.

	Back-transformation to cartesian coordinates to adjust frozen coordinates...
	Successfully converged to displaced geometry.

	--- Internal Coordinate Step in ANG or DEG, aJ/ANG or AJ/DEG ---
	 ---------------------------------------------------------------------------
	   Coordinate                Previous        Force       Change         New 
	   ----------                --------       ------       ------       ------
	    1 *R(1,X)         =      0.900000     0.000000     0.000000     0.900000
	    2 *R(1,Y)         =      0.800000     0.000000     0.000000     0.800000
	    3 *R(1,Z)         =      0.500000     0.000000     0.000000     0.500000
	    4 R(2,X)          =      0.076026     0.014473     0.002603     0.078629
	    5 R(2,Y)          =      0.694698    -0.022235    -0.002082     0.692616
	    6 R(2,Z)          =      0.040733     0.003213    -0.001989     0.038744
	    7 R(3,X)          =     -0.076026    -0.014473    -0.002603    -0.078629
	    8 R(3,Y)          =     -0.694698     0.022235     0.002082    -0.692616
	    9 R(3,Z)          =      0.040733     0.003213    -0.001989     0.038744
	   10 *R(4,X)         =     -0.900000     0.000000     0.000000    -0.900000
	   11 *R(4,Y)         =     -0.800000     0.000000     0.000000    -0.800000
	   12 *R(4,Z)         =      0.500000     0.000000     0.000000     0.500000
	 ---------------------------------------------------------------------------

  ==> Convergence Check <==

  Measures of convergence in internal coordinates in au.
  Criteria marked as inactive (o), active & met (*), and active & unmet ( ).
  ---------------------------------------------------------------------------------------------
   Step     Total Energy     Delta E     MAX Force     RMS Force      MAX Disp      RMS Disp   
  ---------------------------------------------------------------------------------------------
    Convergence Criteria    1.00e-06 *    3.00e-04 *             o    1.20e-03 *             o
  ---------------------------------------------------------------------------------------------
      4    -150.78662240   -1.09e-04      2.70e-03      1.32e-03 o    4.92e-03      2.99e-03 o  ~
  ---------------------------------------------------------------------------------------------

	Writing optimization data to binary file.
	Structure for next step:
	Cartesian Geometry (in Angstrom)
	    H     0.9000000000   0.8000000000   0.5000000000
	    O     0.0786289741   0.6926163041   0.0387437532
	    O    -0.0786289741  -0.6926163041   0.0387437532
	    H    -0.9000000000  -0.8000000000   0.5000000000
			--------------------------
			 OPTKING Finished Execution 
			--------------------------

    Structure for next step:
    Molecular point group: c2
    Full point group: C2

    Geometry (in Angstrom), charge = 0, multiplicity = 1:

    H            0.900000000000     0.800000000000     0.500000000000
    O            0.078628974134     0.692616304142     0.038743753231
    O           -0.078628974134    -0.692616304142     0.038743753231
    H           -0.900000000000    -0.800000000000     0.500000000000

gradient() will perform analytic gradient computation.

*** tstart() called on gimli.chem.bethel.edu
*** at Tue Jan 12 11:04:14 2016

    There are an even number of electrons - assuming singlet.
    Specify the multiplicity with the MULTP option in the
    input if this is incorrect


         ---------------------------------------------------------
                                   SCF
            by Justin Turney, Rob Parrish, and Andy Simmonett
                              RHF Reference
                        8 Threads,    256 MiB Core
         ---------------------------------------------------------

  ==> Geometry <==

    Molecular point group: c2
    Full point group: C2

    Geometry (in Angstrom), charge = 0, multiplicity = 1:

       Center              X                  Y                   Z               Mass       
    ------------   -----------------  -----------------  -----------------  -----------------
           H          0.900000000000     0.800000000000     0.500000000000     1.007825032070
           O          0.078628974134     0.692616304142     0.038743753231    15.994914619560
           O         -0.078628974134    -0.692616304142     0.038743753231    15.994914619560
           H         -0.900000000000    -0.800000000000     0.500000000000     1.007825032070

  Running in c2 symmetry.

  Rotational constants: A =      9.78407  B =      0.94454  C =      0.91287 [cm^-1]
  Rotational constants: A = 293319.14536  B =  28316.60506  C =  27367.27273 [MHz]
  Nuclear repulsion =   38.035514401162594

  Charge       = 0
  Multiplicity = 1
  Electrons    = 18
  Nalpha       = 9
  Nbeta        = 9

  ==> Algorithm <==

  SCF Algorithm Type is DF.
  DIIS enabled.
  MOM disabled.
  Fractional occupation disabled.
  Guess Type is READ.
  Energy threshold   = 1.00e-08
  Density threshold  = 1.00e-08
  Integral threshold = 0.00e+00

  ==> Primary Basis <==

  Basis Set: CC-PVDZ
    Number of shells: 18
    Number of basis function: 38
    Number of Cartesian functions: 40
    Spherical Harmonics?: true
    Max angular momentum: 2

  ==> Pre-Iterations <==

   -------------------------------------------------------
    Irrep   Nso     Nmo     Nalpha   Nbeta   Ndocc  Nsocc
   -------------------------------------------------------
     A         19      19       0       0       0       0
     B         19      19       0       0       0       0
   -------------------------------------------------------
    Total      38      38       9       9       9       0
   -------------------------------------------------------

 OEINTS: Overlap, kinetic, potential, dipole, and quadrupole integrals
         stored in file 35.

  ==> Integral Setup <==

  ==> DFJK: Density-Fitted J/K Matrices <==

    J tasked:                  Yes
    K tasked:                  Yes
    wK tasked:                  No
    OpenMP threads:              8
    Integrals threads:           8
    Memory (MB):               183
    Algorithm:                Core
    Integral Cache:           NONE
    Schwarz Cutoff:          1E-12
    Fitting Condition:       1E-12

   => Auxiliary Basis Set <=

  Basis Set: 
    Number of shells: 66
    Number of basis function: 186
    Number of Cartesian functions: 212
    Spherical Harmonics?: true
    Max angular momentum: 3

  Minimum eigenvalue in the overlap matrix is 2.2084918556E-02.
  Using Symmetric Orthogonalization.
  SCF Guess: Reading in previously saved MOs, projecting if necessary.

  Using orbitals from previous SCF, no projection.
  Recomputing DOCC and SOCC from number of alpha and beta electrons from previous calculation.
              A     B 
    DOCC [     5,    4 ]

  ==> Iterations <==

                           Total Energy        Delta E     RMS |[F,P]|

   @DF-RHF iter   0:  -150.79006003688622   -1.50790e+02   4.32869e-04 
   @DF-RHF iter   1:  -150.78664015143468    3.41989e-03   7.10406e-05 
   @DF-RHF iter   2:  -150.78664276231146   -2.61088e-06   2.30525e-05 DIIS
   @DF-RHF iter   3:  -150.78664326404581   -5.01734e-07   9.87316e-06 DIIS
   @DF-RHF iter   4:  -150.78664337646498   -1.12419e-07   2.55117e-06 DIIS
   @DF-RHF iter   5:  -150.78664338327795   -6.81297e-09   1.20216e-06 DIIS
   @DF-RHF iter   6:  -150.78664338520676   -1.92881e-09   4.91630e-07 DIIS
   @DF-RHF iter   7:  -150.78664338564215   -4.35392e-10   8.37986e-08 DIIS
   @DF-RHF iter   8:  -150.78664338565193   -9.77707e-12   1.30119e-08 DIIS
   @DF-RHF iter   9:  -150.78664338565207   -1.42109e-13   3.92561e-09 DIIS

  ==> Post-Iterations <==

    Orbital Energies (a.u.)
    -----------------------

    Doubly Occupied:                                                      

       1A    -20.616454     1B    -20.616117     2A     -1.497511  
       2B     -1.203845     3A     -0.719787     3B     -0.714565  
       4A     -0.616540     5A     -0.508273     4B     -0.462640  

    Virtual:                                                              

       6A      0.192825     5B      0.200752     6B      0.346393  
       7B      0.832655     7A      0.842019     8B      1.118753  
       8A      1.136761     9A      1.152280     9B      1.220641  
      10B      1.280589    10A      1.334120    11B      1.472007  
      11A      1.517130    12B      1.649883    12A      1.690252  
      13A      1.953904    13B      2.020016    14A      2.476759  
      14B      2.481312    15A      2.705953    16A      2.825383  
      15B      2.884679    17A      3.260055    16B      3.306559  
      17B      3.511354    18A      3.614735    18B      3.928876  
      19A      3.964235    19B      4.287172  

    Final Occupation by Irrep:
              A     B 
    DOCC [     5,    4 ]

  Energy converged.

  @DF-RHF Final Energy:  -150.78664338565207

   => Energetics <=

    Nuclear Repulsion Energy =             38.0355144011625939
    One-Electron Energy =                -283.7328505644182997
    Two-Electron Energy =                  94.9106927776035718
    DFT Exchange-Correlation Energy =       0.0000000000000000
    Empirical Dispersion Energy =           0.0000000000000000
    PCM Polarization Energy =               0.0000000000000000
    EFP Energy =                            0.0000000000000000
    Total Energy =                       -150.7866433856521269

    Alert: EFP and PCM quantities not currently incorporated into SCF psivars.

Properties will be evaluated at   0.000000,   0.000000,   0.000000 Bohr
  ==> Properties <==


Properties computed using the SCF density matrix

  Nuclear Dipole Moment: (a.u.)
     X:    -0.0000      Y:    -0.0000      Z:     3.0612

  Electronic Dipole Moment: (a.u.)
     X:     0.0000      Y:     0.0000      Z:    -2.3685

  Dipole Moment: (a.u.)
     X:    -0.0000      Y:    -0.0000      Z:     0.6926     Total:     0.6926

  Dipole Moment: (Debye)
     X:    -0.0000      Y:    -0.0000      Z:     1.7605     Total:     1.7605


  Saving occupied orbitals to File 180.

*** tstop() called on gimli.chem.bethel.edu at Tue Jan 12 11:04:14 2016
Module time:
	user time   =       0.73 seconds =       0.01 minutes
	system time =       0.01 seconds =       0.00 minutes
	total time  =          0 seconds =       0.00 minutes
Total time:
	user time   =       7.77 seconds =       0.13 minutes
	system time =       0.32 seconds =       0.01 minutes
	total time  =          5 seconds =       0.08 minutes

*** tstart() called on gimli.chem.bethel.edu
*** at Tue Jan 12 11:04:14 2016


         ------------------------------------------------------------
                                   SCF GRAD                          
                          Rob Parrish, Justin Turney,                
                       Andy Simmonett, and Alex Sokolov              
         ------------------------------------------------------------

  ==> Geometry <==

    Molecular point group: c2
    Full point group: C2

    Geometry (in Angstrom), charge = 0, multiplicity = 1:

       Center              X                  Y                   Z               Mass       
    ------------   -----------------  -----------------  -----------------  -----------------
           H          0.900000000000     0.800000000000     0.500000000000     1.007825032070
           O          0.078628974134     0.692616304142     0.038743753231    15.994914619560
           O         -0.078628974134    -0.692616304142     0.038743753231    15.994914619560
           H         -0.900000000000    -0.800000000000     0.500000000000     1.007825032070

  Nuclear repulsion =   38.035514401162587

  ==> Basis Set <==

  Basis Set: CC-PVDZ
    Number of shells: 18
    Number of basis function: 38
    Number of Cartesian functions: 40
    Spherical Harmonics?: true
    Max angular momentum: 2

  ==> DFJKGrad: Density-Fitted SCF Gradients <==

    Gradient:                    1
    J tasked:                  Yes
    K tasked:                  Yes
    wK tasked:                  No
    OpenMP threads:              8
    Integrals threads:           8
    Memory (MB):               183
    Schwarz Cutoff:          0E+00
    Fitting Condition:       1E-12

   => Auxiliary Basis Set <=

  Basis Set: 
    Number of shells: 66
    Number of basis function: 186
    Number of Cartesian functions: 212
    Spherical Harmonics?: true
    Max angular momentum: 3


  -Total Gradient:
     Atom            X                  Y                   Z
    ------   -----------------  -----------------  -----------------
       1        0.000255128664     0.000027886525    -0.000283123276
       2       -0.000229569666     0.000254321951     0.000283123276
       3        0.000229569651    -0.000254321954     0.000283123284
       4       -0.000255128649    -0.000027886522    -0.000283123284


*** tstop() called on gimli.chem.bethel.edu at Tue Jan 12 11:04:15 2016
Module time:
	user time   =       0.98 seconds =       0.02 minutes
	system time =       0.08 seconds =       0.00 minutes
	total time  =          1 seconds =       0.02 minutes
Total time:
	user time   =       8.75 seconds =       0.15 minutes
	system time =       0.40 seconds =       0.01 minutes
	total time  =          6 seconds =       0.10 minutes
CURRENT ENERGY: -150.7866433857

			-----------------------------------------
			 OPTKING 2.0: for geometry optimizations 
			  - R.A. King,  Bethel University        
			-----------------------------------------

	Previous internal coordinate definitions found.
	---Fragment 1 Geometry and Gradient---
	 H           1.7007535196        1.5117809063        0.9448630664
	 O           0.1485872272        1.3088551300        0.0732150830
	 O          -0.1485872272       -1.3088551300        0.0732150830
	 H          -1.7007535196       -1.5117809063        0.9448630664
	             0.0002551287        0.0000278865       -0.0002831233
	            -0.0002295697        0.0002543220        0.0002831233
	             0.0002295697       -0.0002543220        0.0002831233
	            -0.0002551286       -0.0000278865       -0.0002831233

	---Fragment 1 Intrafragment Coordinates---
	 - Coordinate -           - BOHR/RAD -       - ANG/DEG -
	*R(1,X)           =         1.700754	       0.900000
	*R(1,Y)           =         1.511781	       0.800000
	*R(1,Z)           =         0.944863	       0.500000
	 R(2,X)           =         0.148587	       0.078629
	 R(2,Y)           =         1.308855	       0.692616
	 R(2,Z)           =         0.073215	       0.038744
	 R(3,X)           =        -0.148587	      -0.078629
	 R(3,Y)           =        -1.308855	      -0.692616
	 R(3,Z)           =         0.073215	       0.038744
	*R(4,X)           =        -1.700754	      -0.900000
	*R(4,Y)           =        -1.511781	      -0.800000
	*R(4,Z)           =         0.944863	       0.500000

	Current energy   :      -150.7866433857

	Energy change for the previous step:
		Projected    :        -0.0000505000
		Actual       :        -0.0000209824

	Performing BFGS update.
	Previous computed or guess Hessian on step 1.
	Steps to be used in Hessian update: 4 3
	Taking RFO optimization step.
	Going to follow RFO solution 1.
	Using RFO vector 1.
	Norm of target step-size    0.01159
	Projected energy change by RFO approximation:        -0.0000003127

	Back-transformation to cartesian coordinates...
	Successfully converged to displaced geometry.

	Back-transformation to cartesian coordinates to adjust frozen coordinates...
	Successfully converged to displaced geometry.

	--- Internal Coordinate Step in ANG or DEG, aJ/ANG or AJ/DEG ---
	 ---------------------------------------------------------------------------
	   Coordinate                Previous        Force       Change         New 
	   ----------                --------       ------       ------       ------
	    1 *R(1,X)         =      0.900000     0.000000     0.000000     0.900000
	    2 *R(1,Y)         =      0.800000     0.000000     0.000000     0.800000
	    3 *R(1,Z)         =      0.500000     0.000000     0.000000     0.500000
	    4 R(2,X)          =      0.078629     0.001891     0.001963     0.080592
	    5 R(2,Y)          =      0.692616    -0.002095    -0.000550     0.692067
	    6 R(2,Z)          =      0.038744    -0.002333    -0.003829     0.034914
	    7 R(3,X)          =     -0.078629    -0.001891    -0.001963    -0.080592
	    8 R(3,Y)          =     -0.692616     0.002095     0.000550    -0.692067
	    9 R(3,Z)          =      0.038744    -0.002333    -0.003829     0.034914
	   10 *R(4,X)         =     -0.900000     0.000000     0.000000    -0.900000
	   11 *R(4,Y)         =     -0.800000     0.000000     0.000000    -0.800000
	   12 *R(4,Z)         =      0.500000     0.000000     0.000000     0.500000
	 ---------------------------------------------------------------------------

  ==> Convergence Check <==

  Measures of convergence in internal coordinates in au.
  Criteria marked as inactive (o), active & met (*), and active & unmet ( ).
  ---------------------------------------------------------------------------------------------
   Step     Total Energy     Delta E     MAX Force     RMS Force      MAX Disp      RMS Disp   
[...]
	   Coordinate                Previous        Force       Change         New 
	   ----------                --------       ------       ------       ------
	    1 R(1,X)          =      0.837163    -0.002632    -0.002623     0.834540
	    2 R(1,Y)          =      0.852182    -0.001110    -0.001606     0.850577
	    3 R(1,Z)          =      0.494691    -0.000575     0.003757     0.498448
	    4 R(2,X)          =      0.040103     0.002261     0.001788     0.041891
	    5 R(2,Y)          =      0.694846     0.006409     0.000178     0.695024
	    6 R(2,Z)          =      0.005309     0.000575    -0.003757     0.001552
	    7 R(3,X)          =     -0.040103    -0.002261    -0.001788    -0.041891
	    8 R(3,Y)          =     -0.694846    -0.006409    -0.000178    -0.695024
	    9 R(3,Z)          =      0.005309     0.000575    -0.003757     0.001552
	   10 R(4,X)          =     -0.837163     0.002632     0.002623    -0.834540
	   11 R(4,Y)          =     -0.852182     0.001110     0.001606    -0.850577
	   12 R(4,Z)          =      0.494691    -0.000575     0.003757     0.498448
	 ---------------------------------------------------------------------------

  ==> Convergence Check <==

  Measures of convergence in internal coordinates in au.
  Criteria marked as inactive (o), active & met (*), and active & unmet ( ).
  ---------------------------------------------------------------------------------------------
   Step     Total Energy     Delta E     MAX Force     RMS Force      MAX Disp      RMS Disp   
  ---------------------------------------------------------------------------------------------
    Convergence Criteria    1.00e-06 *    3.00e-04 *             o    1.20e-03 *             o
  ---------------------------------------------------------------------------------------------
      7    -150.78667175   -5.81e-06      7.78e-04      3.68e-04 o    7.10e-03      4.93e-03 o  ~
  ---------------------------------------------------------------------------------------------

	Writing optimization data to binary file.
	Structure for next step:
	Cartesian Geometry (in Angstrom)
	    H     0.8345401651   0.8505765450   0.4984477670
	    O     0.0418907806   0.6950242728   0.0015522334
	    O    -0.0418907806  -0.6950242728   0.0015522334
	    H    -0.8345401651  -0.8505765450   0.4984477670
			--------------------------
			 OPTKING Finished Execution 
			--------------------------

    Structure for next step:
    Molecular point group: c2
    Full point group: C2

    Geometry (in Angstrom), charge = 0, multiplicity = 1:

    H            0.834540165101     0.850576545026     0.498447766987
    O            0.041890780644     0.695024272780     0.001552233404
    O           -0.041890780644    -0.695024272780     0.001552233404
    H           -0.834540165101    -0.850576545026     0.498447766987

gradient() will perform analytic gradient computation.

*** tstart() called on gimli.chem.bethel.edu
*** at Tue Jan 12 11:04:36 2016

    There are an even number of electrons - assuming singlet.
    Specify the multiplicity with the MULTP option in the
    input if this is incorrect


         ---------------------------------------------------------
                                   SCF
            by Justin Turney, Rob Parrish, and Andy Simmonett
                              RHF Reference
                        8 Threads,    256 MiB Core
         ---------------------------------------------------------

  ==> Geometry <==

    Molecular point group: c2
    Full point group: C2

    Geometry (in Angstrom), charge = 0, multiplicity = 1:

       Center              X                  Y                   Z               Mass       
    ------------   -----------------  -----------------  -----------------  -----------------
           H          0.834540165101     0.850576545026     0.498447766987     1.007825032070
           O          0.041890780644     0.695024272780     0.001552233404    15.994914619560
           O         -0.041890780644    -0.695024272780     0.001552233404    15.994914619560
           H         -0.834540165101    -0.850576545026     0.498447766987     1.007825032070

  Running in c2 symmetry.

  Rotational constants: A =     10.48518  B =      0.94891  C =      0.91761 [cm^-1]
  Rotational constants: A = 314337.88217  B =  28447.73532  C =  27509.30658 [MHz]
  Nuclear repulsion =   38.059024470922587

  Charge       = 0
  Multiplicity = 1
  Electrons    = 18
  Nalpha       = 9
  Nbeta        = 9

  ==> Algorithm <==

  SCF Algorithm Type is DF.
  DIIS enabled.
  MOM disabled.
  Fractional occupation disabled.
  Guess Type is READ.
  Energy threshold   = 1.00e-08
  Density threshold  = 1.00e-08
  Integral threshold = 0.00e+00

  ==> Primary Basis <==

  Basis Set: CC-PVDZ
    Number of shells: 18
    Number of basis function: 38
    Number of Cartesian functions: 40
    Spherical Harmonics?: true
    Max angular momentum: 2

  ==> Pre-Iterations <==

   -------------------------------------------------------
    Irrep   Nso     Nmo     Nalpha   Nbeta   Ndocc  Nsocc
   -------------------------------------------------------
     A         19      19       0       0       0       0
     B         19      19       0       0       0       0
   -------------------------------------------------------
    Total      38      38       9       9       9       0
   -------------------------------------------------------

 OEINTS: Overlap, kinetic, potential, dipole, and quadrupole integrals
         stored in file 35.

  ==> Integral Setup <==

  ==> DFJK: Density-Fitted J/K Matrices <==

    J tasked:                  Yes
    K tasked:                  Yes
    wK tasked:                  No
    OpenMP threads:              8
    Integrals threads:           8
    Memory (MB):               183
    Algorithm:                Core
    Integral Cache:           NONE
    Schwarz Cutoff:          1E-12
    Fitting Condition:       1E-12

   => Auxiliary Basis Set <=

  Basis Set: 
    Number of shells: 66
    Number of basis function: 186
    Number of Cartesian functions: 212
    Spherical Harmonics?: true
    Max angular momentum: 3

  Minimum eigenvalue in the overlap matrix is 2.2128033469E-02.
  Using Symmetric Orthogonalization.
  SCF Guess: Reading in previously saved MOs, projecting if necessary.

  Using orbitals from previous SCF, no projection.
  Recomputing DOCC and SOCC from number of alpha and beta electrons from previous calculation.
              A     B 
    DOCC [     5,    4 ]

  ==> Iterations <==

                           Total Energy        Delta E     RMS |[F,P]|

   @DF-RHF iter   0:  -150.78639605945600   -1.50786e+02   3.05885e-04 
   @DF-RHF iter   1:  -150.78667043484896   -2.74375e-04   7.48454e-05 
   @DF-RHF iter   2:  -150.78667342587366   -2.99102e-06   2.58021e-05 DIIS
   @DF-RHF iter   3:  -150.78667407140867   -6.45535e-07   8.87183e-06 DIIS
   @DF-RHF iter   4:  -150.78667415840081   -8.69921e-08   2.29097e-06 DIIS
   @DF-RHF iter   5:  -150.78667416330615   -4.90533e-09   6.94144e-07 DIIS
   @DF-RHF iter   6:  -150.78667416368324   -3.77099e-10   1.36287e-07 DIIS
   @DF-RHF iter   7:  -150.78667416370618   -2.29363e-11   4.22367e-08 DIIS
   @DF-RHF iter   8:  -150.78667416370880   -2.61480e-12   1.39048e-08 DIIS
   @DF-RHF iter   9:  -150.78667416370908   -2.84217e-13   4.26252e-09 DIIS

  ==> Post-Iterations <==

    Orbital Energies (a.u.)
    -----------------------

    Doubly Occupied:                                                      

       1A    -20.616680     1B    -20.616342     2A     -1.498385  
       2B     -1.203610     3A     -0.724460     3B     -0.712007  
       4A     -0.615795     5A     -0.504175     4B     -0.466497  

    Virtual:                                                              

       6A      0.191913     5B      0.200771     6B      0.347877  
       7B      0.833923     7A      0.840771     8B      1.119674  
       8A      1.142510     9A      1.153077     9B      1.217126  
      10B      1.280802    10A      1.331140    11B      1.473335  
      11A      1.511747    12B      1.654283    12A      1.680552  
      13A      1.958065    13B      2.013109    14B      2.479333  
      14A      2.480137    15A      2.721479    16A      2.829833  
      15B      2.868794    17A      3.249544    16B      3.314051  
      17B      3.522093    18A      3.611658    18B      3.923346  
      19A      3.968771    19B      4.284573  

    Final Occupation by Irrep:
              A     B 
    DOCC [     5,    4 ]

  Energy converged.

  @DF-RHF Final Energy:  -150.78667416370908

   => Energetics <=

    Nuclear Repulsion Energy =             38.0590244709225871
    One-Electron Energy =                -283.7754929129735615
    Two-Electron Energy =                  94.9297942783419302
    DFT Exchange-Correlation Energy =       0.0000000000000000
    Empirical Dispersion Energy =           0.0000000000000000
    PCM Polarization Energy =               0.0000000000000000
    EFP Energy =                            0.0000000000000000
    Total Energy =                       -150.7866741637090513

    Alert: EFP and PCM quantities not currently incorporated into SCF psivars.

Properties will be evaluated at   0.000000,   0.000000,   0.000000 Bohr
  ==> Properties <==


Properties computed using the SCF density matrix

  Nuclear Dipole Moment: (a.u.)
     X:    -0.0000      Y:    -0.0000      Z:     1.9308

  Electronic Dipole Moment: (a.u.)
     X:     0.0000      Y:     0.0000      Z:    -1.1863

  Dipole Moment: (a.u.)
     X:    -0.0000      Y:    -0.0000      Z:     0.7445     Total:     0.7445

  Dipole Moment: (Debye)
     X:    -0.0000      Y:    -0.0000      Z:     1.8923     Total:     1.8923


  Saving occupied orbitals to File 180.

*** tstop() called on gimli.chem.bethel.edu at Tue Jan 12 11:04:37 2016
Module time:
	user time   =       0.74 seconds =       0.01 minutes
	system time =       0.01 seconds =       0.00 minutes
	total time  =          1 seconds =       0.02 minutes
Total time:
	user time   =      39.55 seconds =       0.66 minutes
	system time =       1.78 seconds =       0.03 minutes
	total time  =         28 seconds =       0.47 minutes

*** tstart() called on gimli.chem.bethel.edu
*** at Tue Jan 12 11:04:37 2016


         ------------------------------------------------------------
                                   SCF GRAD                          
                          Rob Parrish, Justin Turney,                
                       Andy Simmonett, and Alex Sokolov              
         ------------------------------------------------------------

  ==> Geometry <==

    Molecular point group: c2
    Full point group: C2

    Geometry (in Angstrom), charge = 0, multiplicity = 1:

       Center              X                  Y                   Z               Mass       
    ------------   -----------------  -----------------  -----------------  -----------------
           H          0.834540165101     0.850576545026     0.498447766987     1.007825032070
           O          0.041890780644     0.695024272780     0.001552233404    15.994914619560
           O         -0.041890780644    -0.695024272780     0.001552233404    15.994914619560
           H         -0.834540165101    -0.850576545026     0.498447766987     1.007825032070

  Nuclear repulsion =   38.059024470922587

  ==> Basis Set <==

  Basis Set: CC-PVDZ
    Number of shells: 18
    Number of basis function: 38
    Number of Cartesian functions: 40
    Spherical Harmonics?: true
    Max angular momentum: 2

  ==> DFJKGrad: Density-Fitted SCF Gradients <==

    Gradient:                    1
    J tasked:                  Yes
    K tasked:                  Yes
    wK tasked:                  No
    OpenMP threads:              8
    Integrals threads:           8
    Memory (MB):               183
    Schwarz Cutoff:          0E+00
    Fitting Condition:       1E-12

   => Auxiliary Basis Set <=

  Basis Set: 
    Number of shells: 66
    Number of basis function: 186
    Number of Cartesian functions: 212
    Spherical Harmonics?: true
    Max angular momentum: 3


  -Total Gradient:
     Atom            X                  Y                   Z
    ------   -----------------  -----------------  -----------------
       1        0.000156776293     0.000046373512     0.000087776722
       2       -0.000146646079    -0.000173756304    -0.000087776722
       3        0.000146646100     0.000173756311    -0.000087776736
       4       -0.000156776314    -0.000046373519     0.000087776736


*** tstop() called on gimli.chem.bethel.edu at Tue Jan 12 11:04:38 2016
Module time:
	user time   =       1.01 seconds =       0.02 minutes
	system time =       0.07 seconds =       0.00 minutes
	total time  =          1 seconds =       0.02 minutes
Total time:
	user time   =      40.56 seconds =       0.68 minutes
	system time =       1.85 seconds =       0.03 minutes
	total time  =         29 seconds =       0.48 minutes
CURRENT ENERGY: -150.7866741637

			-----------------------------------------
			 OPTKING 2.0: for geometry optimizations 
			  - R.A. King,  Bethel University        
			-----------------------------------------

	Previous internal coordinate definitions found.
	---Fragment 1 Geometry and Gradient---
	 H           1.5770523589        1.6073567252        0.9419297712
	 O           0.0791621029        1.3134055313        0.0029332960
	 O          -0.0791621029       -1.3134055313        0.0029332960
	 H          -1.5770523589       -1.6073567252        0.9419297712
	             0.0001567763        0.0000463735        0.0000877767
	            -0.0001466461       -0.0001737563       -0.0000877767
	             0.0001466461        0.0001737563       -0.0000877767
	            -0.0001567763       -0.0000463735        0.0000877767

	---Fragment 1 Intrafragment Coordinates---
	 - Coordinate -           - BOHR/RAD -       - ANG/DEG -
	 R(1,X)           =         1.577052	       0.834540
	 R(1,Y)           =         1.607357	       0.850577
	 R(1,Z)           =         0.941930	       0.498448
	 R(2,X)           =         0.079162	       0.041891
	 R(2,Y)           =         1.313406	       0.695024
	 R(2,Z)           =         0.002933	       0.001552
	 R(3,X)           =        -0.079162	      -0.041891
	 R(3,Y)           =        -1.313406	      -0.695024
	 R(3,Z)           =         0.002933	       0.001552
	 R(4,X)           =        -1.577052	      -0.834540
	 R(4,Y)           =        -1.607357	      -0.850577
	 R(4,Z)           =         0.941930	       0.498448

	Current energy   :      -150.7866741637

	Energy change for the previous step:
		Projected    :        -0.0000626639
		Actual       :        -0.0000024176
	Energy ratio indicates iffy step: Trust radius decreased to 1.562e-02.


	Performing BFGS update.
	Previous computed or guess Hessian on step 1.
	Steps to be used in Hessian update: 7 6
	Taking RFO optimization step.
	Going to follow RFO solution 1.
	Using RFO vector 1.
	Norm of target step-size    0.00208
	Projected energy change by RFO approximation:        -0.0000001970

	Back-transformation to cartesian coordinates...
	Successfully converged to displaced geometry.

	--- Internal Coordinate Step in ANG or DEG, aJ/ANG or AJ/DEG ---
	 ---------------------------------------------------------------------------
	   Coordinate                Previous        Force       Change         New 
	   ----------                --------       ------       ------       ------
	    1 R(1,X)          =      0.834540    -0.001292     0.000237     0.834777
	    2 R(1,Y)          =      0.850577    -0.000382    -0.000591     0.849986
	    3 R(1,Z)          =      0.498448    -0.000723     0.000089     0.498537
	    4 R(2,X)          =      0.041891     0.001208     0.000422     0.042313
	    5 R(2,Y)          =      0.695024     0.001432     0.000077     0.695101
	    6 R(2,Z)          =      0.001552     0.000723    -0.000089     0.001463
	    7 R(3,X)          =     -0.041891    -0.001208    -0.000422    -0.042313
	    8 R(3,Y)          =     -0.695024    -0.001432    -0.000077    -0.695101
	    9 R(3,Z)          =      0.001552     0.000723    -0.000089     0.001463
	   10 R(4,X)          =     -0.834540     0.001292    -0.000237    -0.834777
	   11 R(4,Y)          =     -0.850577     0.000382     0.000591    -0.849986
	   12 R(4,Z)          =      0.498448    -0.000723     0.000089     0.498537
	 ---------------------------------------------------------------------------

  ==> Convergence Check <==

  Measures of convergence in internal coordinates in au.
  Criteria marked as inactive (o), active & met (*), and active & unmet ( ).
  ---------------------------------------------------------------------------------------------
   Step     Total Energy     Delta E     MAX Force     RMS Force      MAX Disp      RMS Disp   
  ---------------------------------------------------------------------------------------------
    Convergence Criteria    1.00e-06 *    3.00e-04 *             o    1.20e-03 *             o
  ---------------------------------------------------------------------------------------------
      8    -150.78667416   -2.42e-06      1.74e-04 *    1.25e-04 o    1.12e-03 *    6.00e-04 o  ~
  ---------------------------------------------------------------------------------------------


  **** Optimization is complete! (in 8 steps) ****

  ==> Optimization Summary <==

  Measures of convergence in internal coordinates in au.
  --------------------------------------------------------------------------------------------------------------- ~
   Step         Total Energy             Delta E       MAX Force       RMS Force        MAX Disp        RMS Disp  ~
  --------------------------------------------------------------------------------------------------------------- ~
      1    -150.769562686654   -150.769562686654      0.08777122      0.04990059      0.11246688      0.05192419  ~
      2    -150.785772964519     -0.016210277865      0.01593864      0.01150230      0.06332734      0.02964970  ~
      3    -150.786548392332     -0.000775427813      0.00639258      0.00427339      0.02591587      0.01624041  ~
      4    -150.786637722024     -0.000089329692      0.00245316      0.00142767      0.00637576      0.00387414  ~
      5    -150.786657807083     -0.000020085059      0.00030011      0.00022525      0.01052189      0.00659870  ~
      6    -150.786665939402     -0.000008132319      0.00080887      0.00035396      0.00894507      0.00627755  ~
      7    -150.786671746094     -0.000005806692      0.00077792      0.00036753      0.00709970      0.00493474  ~
      8    -150.786674163709     -0.000002417615      0.00017376      0.00012506      0.00111649      0.00060012  ~
  --------------------------------------------------------------------------------------------------------------- ~

	Writing optimization data to binary file.
	Final energy is   -150.7866741637091
	Final (previous) structure:
	Cartesian Geometry (in Angstrom)
	    H     0.8345401651   0.8505765450   0.4984477670
	    O     0.0418907806   0.6950242728   0.0015522334
	    O    -0.0418907806  -0.6950242728   0.0015522334
	    H    -0.8345401651  -0.8505765450   0.4984477670
	Saving final (previous) structure.
			--------------------------
			 OPTKING Finished Execution 
			--------------------------

    Final optimized geometry and variables:
    Molecular point group: c2
    Full point group: C2

    Geometry (in Angstrom), charge = 0, multiplicity = 1:

    H            0.834540165101     0.850576545026     0.498447766987
    O            0.041890780644     0.695024272780     0.001552233404
    O           -0.041890780644    -0.695024272780     0.001552233404
    H           -0.834540165101    -0.850576545026     0.498447766987

	Cleaning optimization helper files.

*** PSI4 exiting successfully. Buy a developer a beer!
