
    -----------------------------------------------------------------------
          Psi4: An Open-Source Ab Initio Electronic Structure Package
                               Psi4 1.1rc3.dev5 

                         Git: Rev {master} 3fbd859 


    R. M. Parrish, L. A. Burns, D. G. A. Smith, A. C. Simmonett,
    A. E. DePrince III, E. G. Hohenstein, U. Bozkaya, A. Yu. Sokolov,
    R. Di Remigio, R. M. Richard, J. F. Gonthier, A. M. James,
    H. R. McAlexander, A. Kumar, M. Saitow, X. Wang, B. P. Pritchard,
    P. Verma, H. F. Schaefer III, K. Patkowski, R. A. King, E. F. Valeev,
    F. A. Evangelista, J. M. Turney, T. D. Crawford, and C. D. Sherrill,
    J. Chem. Theory Comput. in press (2017).
    (doi: 10.1021/acs.jctc.7b00174)

    -----------------------------------------------------------------------


    Psi4 started on: Monday, 15 May 2017 03:36PM

    Process ID:  14320
    PSIDATADIR: /home/psilocaluser/gits/hrw-direct/objdir4/stage/usr/local/psi4/share/psi4
    Memory:     500.0 MiB
    Threads:    1
    
  ==> Input File <==

--------------------------------------------------------------------------
#! 6-31G H2O Test FCI Energy Point

refnuc   =   9.2342185209120 #TEST
refscf   = -75.9853236724118 #TEST
refci    = -76.1210978591481 #TEST
refcorr  = refci - refscf    #TEST

molecule h2o {
   O       .0000000000         .0000000000        -.0742719254
   H       .0000000000       -1.4949589982       -1.0728640373
   H       .0000000000        1.4949589982       -1.0728640373
units bohr
}

set {
  basis 6-31G
}

thisenergy = energy('fci')

# 7 digits on CI seems ok, but we may need to back it down to 6 later #TEST
compare_values(refnuc, h2o.nuclear_repulsion_energy(), 9, "Nuclear repulsion energy") #TEST 
compare_values(refscf, get_variable("SCF total energy"),     8, "SCF energy") #TEST
compare_values(refci, thisenergy,                      7, "CI energy") #TEST
compare_values(refcorr, get_variable("CI CORRELATION ENERGY"), 7, "CI correlation energy") #TEST
--------------------------------------------------------------------------

*** tstart() called on psinet
*** at Mon May 15 15:36:30 2017

   => Loading Basis Set <=

    Name: 6-31G
    Role: ORBITAL
    Keyword: BASIS
    atoms 1   entry O          line   112 file /home/psilocaluser/gits/hrw-direct/objdir4/stage/usr/local/psi4/share/psi4/basis/6-31g.gbs 
    atoms 2-3 entry H          line    21 file /home/psilocaluser/gits/hrw-direct/objdir4/stage/usr/local/psi4/share/psi4/basis/6-31g.gbs 

    There are an even number of electrons - assuming singlet.
    Specify the multiplicity in the molecule input block.


         ---------------------------------------------------------
                                   SCF
            by Justin Turney, Rob Parrish, and Andy Simmonett
                              RHF Reference
                        1 Threads,    500 MiB Core
         ---------------------------------------------------------

  ==> Geometry <==

    Molecular point group: c2v
    Full point group: C2v

    Geometry (in Bohr), charge = 0, multiplicity = 1:

       Center              X                  Y                   Z               Mass       
    ------------   -----------------  -----------------  -----------------  -----------------
           O         -0.000000000000     0.000000000000     0.111757309654    15.994914619560
           H          0.000000000000    -1.494958998200    -0.886834802246     1.007825032070
           H         -0.000000000000     1.494958998200    -0.886834802246     1.007825032070

  Running in c2v symmetry.

  Rotational constants: A =     33.72471  B =     13.36351  C =      9.57098 [cm^-1]
  Rotational constants: A = 1011041.39715  B = 400627.94014  C = 286930.81420 [MHz]
  Nuclear repulsion =    9.234218520911984

  Charge       = 0
  Multiplicity = 1
  Electrons    = 10
  Nalpha       = 5
  Nbeta        = 5

  ==> Algorithm <==

  SCF Algorithm Type is PK.
  DIIS enabled.
  MOM disabled.
  Fractional occupation disabled.
  Guess Type is SAD.
  Energy threshold   = 1.00e-08
  Density threshold  = 1.00e-08
  Integral threshold = 0.00e+00

  ==> Primary Basis <==

  Basis Set: 6-31G
    Blend: 6-31G
    Number of shells: 9
    Number of basis function: 13
    Number of Cartesian functions: 13
    Spherical Harmonics?: false
    Max angular momentum: 1

  ==> Pre-Iterations <==

   -------------------------------------------------------
    Irrep   Nso     Nmo     Nalpha   Nbeta   Ndocc  Nsocc
   -------------------------------------------------------
     A1         7       7       0       0       0       0
     A2         0       0       0       0       0       0
     B1         2       2       0       0       0       0
     B2         4       4       0       0       0       0
   -------------------------------------------------------
    Total      13      13       5       5       5       0
   -------------------------------------------------------

  ==> Integral Setup <==

  Using in-core PK algorithm.
   Calculation information:
      Number of atoms:                   3
      Number of AO shells:               9
      Number of primitives:             22
      Number of atomic orbitals:        13
      Number of basis functions:        13

      Integral cutoff                 1.00e-12
      Number of threads:                 1

  Performing in-core PK
  Using 8372 doubles for integral storage.
  We computed 1035 shell quartets total.
  Whereas there are 1035 unique shell quartets.
  ==> DiskJK: Disk-Based J/K Matrices <==

    J tasked:                  Yes
    K tasked:                  Yes
    wK tasked:                  No
    Memory (MB):               375
    Schwarz Cutoff:          1E-12

    OpenMP threads:              1
  Minimum eigenvalue in the overlap matrix is 6.9145831984E-02.
  Using Symmetric Orthogonalization.

  SCF Guess: Superposition of Atomic Densities via on-the-fly atomic UHF.

  ==> Iterations <==

                        Total Energy        Delta E     RMS |[F,P]|

   @RHF iter   0:   -76.00298801839571   -7.60030e+01   2.01284e-01 
   @RHF iter   1:   -75.95059805143990    5.23900e-02   3.23630e-02 
   @RHF iter   2:   -75.97760220018455   -2.70041e-02   1.67959e-02 DIIS
   @RHF iter   3:   -75.98474801534404   -7.14582e-03   2.72560e-03 DIIS
   @RHF iter   4:   -75.98527747729823   -5.29462e-04   6.70374e-04 DIIS
   @RHF iter   5:   -75.98532301425237   -4.55370e-05   7.17564e-05 DIIS
   @RHF iter   6:   -75.98532365379398   -6.39542e-07   1.39068e-05 DIIS
   @RHF iter   7:   -75.98532367222725   -1.84333e-08   1.65425e-06 DIIS
   @RHF iter   8:   -75.98532367240884   -1.81586e-10   1.83929e-07 DIIS
   @RHF iter   9:   -75.98532367241185   -3.01270e-12   3.44670e-08 DIIS
   @RHF iter  10:   -75.98532367241191   -5.68434e-14   1.94912e-09 DIIS

  ==> Post-Iterations <==

    Orbital Energies (a.u.)
    -----------------------

    Doubly Occupied:                                                      

       1A1   -20.553032     2A1    -1.350528     1B2    -0.726863  
       3A1    -0.546143     1B1    -0.497682  

    Virtual:                                                              

       4A1     0.206667     2B2     0.302606     3B2     1.111487  
       5A1     1.152531     2B1     1.167571     6A1     1.204413  
       4B2     1.389485     7A1     1.673595  

    Final Occupation by Irrep:
             A1    A2    B1    B2 
    DOCC [     3,    0,    1,    1 ]

  Energy converged.

  @RHF Final Energy:   -75.98532367241191

   => Energetics <=

    Nuclear Repulsion Energy =              9.2342185209119840
    One-Electron Energy =                -123.0905882733825223
    Two-Electron Energy =                  37.8710460800586475
    DFT Exchange-Correlation Energy =       0.0000000000000000
    Empirical Dispersion Energy =           0.0000000000000000
    PCM Polarization Energy =               0.0000000000000000
    EFP Energy =                            0.0000000000000000
    Total Energy =                        -75.9853236724118943



Properties will be evaluated at   0.000000,   0.000000,   0.000000 Bohr

Properties computed using the SCF density matrix

  Nuclear Dipole Moment: (a.u.)
     X:     0.0000      Y:     0.0000      Z:    -0.8796

  Electronic Dipole Moment: (a.u.)
     X:     0.0000      Y:     0.0000      Z:    -0.0972

  Dipole Moment: (a.u.)
     X:     0.0000      Y:     0.0000      Z:    -0.9768     Total:     0.9768

  Dipole Moment: (Debye)
     X:     0.0000      Y:     0.0000      Z:    -2.4827     Total:     2.4827


*** tstop() called on psinet at Mon May 15 15:36:30 2017
Module time:
	user time   =       0.38 seconds =       0.01 minutes
	system time =       0.02 seconds =       0.00 minutes
	total time  =          0 seconds =       0.00 minutes
Total time:
	user time   =       0.38 seconds =       0.01 minutes
	system time =       0.02 seconds =       0.00 minutes
	total time  =          0 seconds =       0.00 minutes
 MINTS: Wrapper to libmints.
   by Justin Turney

   Calculation information:
      Number of threads:                 1
      Number of atoms:                   3
      Number of AO shells:               9
      Number of SO shells:               7
      Number of primitives:             22
      Number of atomic orbitals:        13
      Number of basis functions:        13

      Number of irreps:                  4
      Integral cutoff                 0.00e+00
      Number of functions per irrep: [   7    0    2    4 ]

 OEINTS: Overlap, kinetic, potential, dipole, and quadrupole integrals
         stored in file 35.

      Computing two-electron integrals...done
      Computed 1270 non-zero two-electron integrals.
        Stored in file 33.


         ---------------------------------------------------------
                          Configuration Interaction
                            (a 'D E T C I' module)

                 C. David Sherrill, Daniel G. A. Smith, and
                              Matt L. Leininger
         ---------------------------------------------------------


   ==> Parameters <==

    EX LEVEL       =       10      H0 BLOCKSIZE  =     1000
    VAL EX LEVEL   =        0      H0 GUESS SIZE =     1000
    H0COUPLINGSIZE =        0      H0 COUPLING   =       NO
    MAXITER        =       24      NUM PRINT     =       20
    NUM ROOTS      =        1      ICORE         =        1
    PRINT LVL      =        1      FCI           =      YES
    R CONV         = 1.00e-04      MIXED         =      YES
    E CONV         = 1.00e-06      MIXED4        =      YES
    R4S            =       NO      REPL OTF      =       NO
    DIAG METHOD    =      SEM      FOLLOW ROOT   =        0
    PRECONDITIONER = DAVIDSON      UPDATE        = DAVIDSON
    S              =   0.0000      Ms0           =      YES
    GUESS VECTOR   =  H0BLOCK      OPENTYPE      =     NONE
    COLLAPSE SIZE  =        1      HD AVG        = EVANGELISTI
    MAX NUM VECS   =       25      REF SYM       =     AUTO
    IOPEN        =       NO

    EX ALLOW       =  1  1  1  1  1  1  1  1  1  1 
    STATE AVERAGE  =  0(1.00) 

   ==> CI Orbital and Space information <==

   ------------------------------------------------------
               Space    Total    A1    A2    B1    B2
   ------------------------------------------------------
                 Nso       13     7     0     2     4
                 Nmo       13     7     0     2     4
               Ndocc        5     3     0     1     1
               Nsocc        0     0     0     0     0
   ------------------------------------------------------
                       CI Spaces
   ------------------------------------------------------
        Dropped DOCC        0     0     0     0     0
              Active       13     7     0     2     4
        Dropped UOCC        0     0     0     0     0
   ------------------------------------------------------

   ==> Setting up CI strings <==

    There are 1287 alpha and 1287 beta strings
    The CI space requires 414441 (4.14E+05) determinants and 4 blocks

   ==> Transforming CI integrals <==

	Presorting SO-basis two-electron integrals.
	Sorting File: SO Ints (nn|nn) nbuckets = 1
	Transforming the one-electron integrals and constructing Fock matrices
	Starting first half-transformation.
	Sorting half-transformed integrals.
	First half integral transformation complete.
	Starting second half-transformation.
	Two-electron integral transformation complete.

   ==> Starting CI iterations <==

    H0 Block Eigenvalue = -76.09646333

    Simultaneous Expansion Method (Block Davidson Method)
    Using 1 initial trial vectors

     Iter   Root       Total Energy       Delta E      C RMS

   @CI  0:     0    -76.096463330926   -8.5331E+01   3.6769E-01  
   @CI  1:     0    -76.120198062520   -2.3735E-02   7.6876E-02  
   @CI  2:     0    -76.120990325244   -7.9226E-04   2.4807E-02  
   @CI  3:     0    -76.121085847502   -9.5522E-05   8.5203E-03  
   @CI  4:     0    -76.121096635520   -1.0788E-05   2.5749E-03  
   @CI  5:     0    -76.121097733838   -1.0983E-06   8.6676E-04  
   @CI  6:     0    -76.121097844451   -1.1061E-07   2.6924E-04  
   @CI  7:     0    -76.121097856960   -1.2509E-08   1.0526E-04  
   @CI  8:     0    -76.121097859155   -2.1946E-09   4.7213E-05 c

   ==> Energetics <==

    SCF energy =          -75.985323672411894
    Total CI energy =     -76.121097859155029

   ==> FCI root 0 information <==

    FCI Root 0 energy =   -76.121097859155029

   The 20 most important determinants:

    *   1    0.977794  (  315,  315)  1A1X 2A1X 3A1X 1B1X 1B2X 
    *   2   -0.052512  (  350,  350)  1A1X 2A1X 3A1X 1B2X 2B1X 
    *   3   -0.046447  (  325,  325)  1A1X 2A1X 1B1X 1B2X 6A1X 
    *   4   -0.038630  (  385,  385)  1A1X 2A1X 3A1X 1B1X 2B2X 
    *   5    0.033839  (  325,  350)  1A1X 2A1X 3A1B 1B1A 1B2X 6A1A 2B1B 
    *   6    0.033839  (  350,  325)  1A1X 2A1X 3A1A 1B1B 1B2X 6A1B 2B1A 
    *   7   -0.028935  (  652,  652)  1A1X 2A1X 3A1X 1B1X 5A1X 
    *   8   -0.026827  (  539,  539)  1A1X 2A1X 3A1X 1B1X 4B2X 
    *   9   -0.026439  (  455,  455)  1A1X 2A1X 3A1X 1B1X 3B2X 
    *  10    0.025781  (  350,  539)  1A1X 2A1X 3A1X 1B1B 1B2A 2B1A 4B2B 
    *  11    0.025781  (  539,  350)  1A1X 2A1X 3A1X 1B1A 1B2B 2B1B 4B2A 
    *  12    0.024396  (  350,  385)  1A1X 2A1X 3A1X 1B1B 1B2A 2B1A 2B2B 
    *  13    0.024396  (  385,  350)  1A1X 2A1X 3A1X 1B1A 1B2B 2B1B 2B2A 
    *  14   -0.024273  (  385,  539)  1A1X 2A1X 3A1X 1B1X 2B2A 4B2B 
    *  15   -0.024273  (  539,  385)  1A1X 2A1X 3A1X 1B1X 2B2B 4B2A 
    *  16   -0.023691  (  315,  360)  1A1X 2A1X 3A1A 1B1A 1B2X 6A1B 2B1B 
    *  17   -0.023691  (  360,  315)  1A1X 2A1X 3A1B 1B1B 1B2X 6A1A 2B1A 
    *  18   -0.023227  (  325,  539)  1A1X 2A1X 3A1B 1B1X 1B2A 6A1A 4B2B 
    *  19   -0.023227  (  539,  325)  1A1X 2A1X 3A1A 1B1X 1B2B 6A1B 4B2A 
    *  20   -0.022840  (  325,  385)  1A1X 2A1X 3A1B 1B1X 1B2A 6A1A 2B2B 

		 "A good bug is a dead bug" 

			 - Starship Troopers

		 "I didn't write FORTRAN.  That's the problem."

			 - Edward Valeev
	Nuclear repulsion energy..........................................PASSED
	SCF energy........................................................PASSED
	CI energy.........................................................PASSED
	CI correlation energy.............................................PASSED

*** Psi4 exiting successfully. Buy a developer a beer!
