
    -----------------------------------------------------------------------
          Psi4: An Open-Source Ab Initio Electronic Structure Package
                               Psi4 1.1rc3.dev5 

                         Git: Rev {master} 3fbd859 


    R. M. Parrish, L. A. Burns, D. G. A. Smith, A. C. Simmonett,
    A. E. DePrince III, E. G. Hohenstein, U. Bozkaya, A. Yu. Sokolov,
    R. Di Remigio, R. M. Richard, J. F. Gonthier, A. M. James,
    H. R. McAlexander, A. Kumar, M. Saitow, X. Wang, B. P. Pritchard,
    P. Verma, H. F. Schaefer III, K. Patkowski, R. A. King, E. F. Valeev,
    F. A. Evangelista, J. M. Turney, T. D. Crawford, and C. D. Sherrill,
    J. Chem. Theory Comput. in press (2017).
    (doi: 10.1021/acs.jctc.7b00174)

    -----------------------------------------------------------------------


    Psi4 started on: Monday, 15 May 2017 03:38PM

    Process ID:  15081
    PSIDATADIR: /home/psilocaluser/gits/hrw-direct/objdir4/stage/usr/local/psi4/share/psi4
    Memory:     500.0 MiB
    Threads:    1
    
  ==> Input File <==

--------------------------------------------------------------------------
#! Mk-MRCCSD(T) single point. $^1A@@1$ CH2 state described using
#! the Ms = 0 component of the singlet.  Uses RHF singlet orbitals.

refnuc      =    5.912862514729  #TEST
refscf      =  -38.911021663021  #TEST
refmkccsd_t =  -39.037898229468  #TEST

molecule ch2 {
  0 1
  C         0.000000000000    -0.071831139101     0.000000000000
  H         2.056713670133     0.427640533717     0.000000000000
  H        -2.056713670133     0.427640533717     0.000000000000

  units au
}

set {
  basis cc-pvdz
  e_convergence 10
  d_convergence 10
  r_convergence 10
}

set mcscf {
  reference       rohf
  # The socc and docc needn't be specified; in this case the code will converge correctly without
  docc            [2,0,1,0]      # Doubly occupied MOs
  socc            [1,0,0,1]      # Singly occupied MOs
}

set psimrcc {
  corr_wfn        ccsd_t         # Do Mk-MRCCSD(T) 
  frozen_docc     [0,0,0,0]      # Frozen MOs
  restricted_docc [2,0,1,0]      # Doubly occupied MOs
  active          [1,0,0,1]      # Active MOs
  frozen_uocc     [0,0,0,0]      # Frozen virtual MOs
  corr_multp      1              # Select the Ms = 0 component
  wfn_sym         B2             # Select the A1 state
  heff4           false
}

energy('psimrcc')
compare_values(refnuc, ch2.nuclear_repulsion_energy()     , 9, "Nuclear repulsion energy") #TEST 
compare_values(refscf, get_variable("SCF TOTAL ENERGY")  , 9, "SCF energy")               #TEST 
compare_values(refmkccsd_t, get_variable("CURRENT ENERGY") , 8, "MkCCSD energy")            #TEST 
--------------------------------------------------------------------------
   => Loading Basis Set <=

    Name: CC-PVDZ
    Role: ORBITAL
    Keyword: BASIS
    atoms 1   entry C          line   130 file /home/psilocaluser/gits/hrw-direct/objdir4/stage/usr/local/psi4/share/psi4/basis/cc-pvdz.gbs 
    atoms 2-3 entry H          line    20 file /home/psilocaluser/gits/hrw-direct/objdir4/stage/usr/local/psi4/share/psi4/basis/cc-pvdz.gbs 


*** tstart() called on psinet
*** at Mon May 15 15:38:26 2017


         ------------------------------------------
           MCSCF: a self-consistent field program
            written by Francesco A. Evangelista
         ------------------------------------------

  MOs per irrep:                                      A1  A2  B1  B2 Total
  ----------------------------------------------------------------------------
  Total                                               11    2    7    4    24
  Doubly Occupied                                      2    0    1    0     3
  Active/Singly Occupied                               1    0    0    1     2
  ----------------------------------------------------------------------------

  Running an SCF calculation

  Generated 300 pairs
  Distributed as [107 A1][50 A2][85 B1][58 B2]
  batch   0 pq = [       0,     107] index = [               0,            5778]

  Allocated the PK matrix (5778 elements) 
  Allocated the  K matrix (5778 elements) 
  Reading the two-electron integrals to form PK and K ... 
  batch   0 ... done.


  =========================================================================================
         Cycle          Energy               D(Energy)            D(Density)            DIIS
  ===========================================================================================
  Setting level shift to 0.000 S
  @SCF    0      -35.306182112885     -35.306182112885       0.108674250013
  Setting level shift to 0.000 S
  @SCF    1      -37.734567096232      -2.428384983348       0.106495116193
  Setting level shift to 0.000 S
  @SCF    2      -38.693389625209      -0.958822528976       0.048129098118
  Setting level shift to 0.000 S
  @SCF    3      -38.872526763594      -0.179137138385       0.014762708938
  Setting level shift to 0.000 S
  @SCF    4      -38.906442299408      -0.033915535814       0.004934750163
  Setting level shift to 0.000 S
  @SCF    5      -38.910369310753      -0.003927011345       0.002147999485
  Setting level shift to 0.000 S
  @SCF    6      -38.910926536614      -0.000557225861       0.000541074671
  Setting level shift to 0.000 S/E
  @SCF    7      -38.911006332339      -0.000079795726       0.000297991449
  Setting level shift to 0.000 S/E
  @SCF    8      -38.911021622553      -0.000015290214       0.000094630067
  Setting level shift to 0.000 S/E
  @SCF    9      -38.911021661943      -0.000000039390       0.000009417590
  Setting level shift to 0.000 S/E
  @SCF   10      -38.911021662951      -0.000000001008       0.000000847917
  Setting level shift to 0.000 S/E
  @SCF   11      -38.911021663019      -0.000000000068       0.000000441657
  Setting level shift to 0.000 S/E
  @SCF   12      -38.911021663021      -0.000000000002       0.000000110950
  Setting level shift to 0.000 S/E
  @SCF   13      -38.911021663021       0.000000000000       0.000000012946
  Setting level shift to 0.000 S/E
  @SCF   14      -38.911021663021      -0.000000000000       0.000000000924
  Setting level shift to 0.000 S/E
  @SCF   15      -38.911021663021       0.000000000000       0.000000000223
  Setting level shift to 0.000 S/E
  @SCF   16      -38.911021663021      -0.000000000000       0.000000000040
  =========================================================================================

      * SCF total energy   =     -38.911021663021


  End of SCF
  MOs orthonormality check passed.

  Orbitals are canonicalized as:
  inactive (docc + uocc) : Fock(core)
  active   (actv)        : Fock(core)

  =========================================================================
  Eigenvalues (Eh)
  -------------------------------------------------------------------------
  Doubly occupied orbitals
      1    -11.249144  A1      2     -0.832273  A1      3     -0.600230  B1
  Active orbitals
      4     -0.119393  A1      5     -0.101822  B2
  Unoccupied orbitals
      6      0.192203  A1      7      0.255889  B1      8      0.558801  A1
      9      0.722857  B2     10      0.727209  A1     11      0.815014  B1
     12      0.917228  B1     13      0.990963  A1     14      1.173739  A2
     15      1.381505  B1     16      1.401341  A1     17      1.404815  B2
     18      1.717272  A1     19      1.772014  B2     20      2.053598  A1
     21      2.197022  B1     22      2.251307  A2     23      2.646863  B1
     24      3.077410  A1
  =========================================================================


  MCSCF Execution Completed.


*** tstop() called on psinet at Mon May 15 15:38:26 2017
Module time:
	user time   =       0.04 seconds =       0.00 minutes
	system time =       0.02 seconds =       0.00 minutes
	total time  =          0 seconds =       0.00 minutes
Total time:
	user time   =       0.04 seconds =       0.00 minutes
	system time =       0.02 seconds =       0.00 minutes
	total time  =          0 seconds =       0.00 minutes

  MRCC          MRCC
   MRCC  MRCC  MRCC
   MRCC  MRCC  MRCC      PSIMRCC Version 0.9.3.3, July 2009
   MRCC  MRCC  MRCC      Multireference Coupled Cluster, written by
     MRCCMRCCMRCC        Francesco A. Evangelista and Andrew C. Simmonett
         MRCC            Compiled on May 15 2017 at 15:13:06
         MRCC
       MRCCMRCC
  For a single-point only

  ==============================================================================
  System Info:
  ------------------------------------------------------------------------------
  Nuclear Energy   = 5.912862515      SCF Energy       = -38.911021663  

  MOs and Symmetry:
  ------------------------------------------------------------------------------
  nirreps          = 4                root             = 0         
  nso              = 24               nmo              = 24        
  nael             = 4                nbel             = 4         
  nactive_ael      = 1                nactive_bel      = 1         

  Details of the Computation:
  ------------------------------------------------------------------------------

  MOs per irrep:                                        A1  A2  B1  B2 Total
  ------------------------------------------------------------------------------
  Total                                                 11    2    7    4    24
  Frozen Occupied                                        0    0    0    0     0
  Doubly Occupied                                        2    0    1    0     3
  Active                                                 1    0    0    1     2
  External                                               8    2    6    3    19
  Frozen Virtual                                         0    0    0    0     0

  Model space
  ------------------------------------------------------------------------------
   0  |[22-][][2][+]>
   1  |[22+][][2][-]>
  ==============================================================================

  Allocated work array of size 23960 (0.02 MiB)
  Allocated buffer array of size 26459888 (25.23 MiB)	Presorting SO-basis two-electron integrals.
	Sorting File: SO Ints (nn|nn) nbuckets = 1
	Transforming the one-electron integrals and constructing Fock matrices
	Starting first half-transformation.
	Sorting half-transformed integrals.
	First half integral transformation complete.
	Starting second half-transformation.
	Two-electron integral transformation complete.


  Presorting two-electron integrals from IWL buffer
    Memory available                       =      497456112 bytes
    Memory available for presorting        =      373092084 bytes (75.0%)
    Memory required for in-core presort    =          99352 bytes
    Presorting is not required
    Reading irreps 0 -> 3 (12419 non-zero integrals)

  Sorting integrals:
    Memory available                       =      497451504 bytes
    Memory available for sorting           =      248725752 bytes (50.0%)

    Pass 1:
    Setting up the matrix list: added 240 matrices blocks
    Integrals from irreps 0 -> 3 will be read in core

    Frozen-core energy                     =          0.000000000

  Computing storage strategy:
    Input memory                           =      524288000 bytes
    Free memory                            =      497451504 bytes
    Free memory available for matrices     =      482527958 bytes ( 97%)
    Memory required by fock matrices       =           7240 bytes
    Memory required by integrals           =        1352776 bytes
    Memory required by other matrices      =        1997920 bytes
    Memory required for in-core algorithm  =        3357936 bytes
    PSIMRCC will perform a full in-core computation

  Options:
  ----------------------------------------------------------------------------
  ACTIVE                      => [ 1, 0, 0, 1 ] !
  BASIS_RELATIVISTIC          => (empty)         
  BENCH                       => 0               
  CC_NUM_THREADS              => 1               
  CC_TYPE                     => CONV            
  CI_TYPE                     => CONV            
  CORR_ANSATZ                 => MK              
  CORR_CCSD_T                 => STANDARD        
  CORR_CHARGE                 => 0               
  CORR_MULTP                  => 1              !
  CORR_WFN                    => CCSD_T         !
  COUPLING                    => CUBIC           
  COUPLING_TERMS              => TRUE            
  CUBEPROP_BASIS_FUNCTIONS    => [  ]            
  CUBEPROP_FILEPATH           => .               
  CUBEPROP_ORBITALS           => [  ]            
  CUBEPROP_TASKS              => [  ]            
  CUBIC_BASIS_TOLERANCE       => 1e-12           
  CUBIC_BLOCK_MAX_POINTS      => 1000            
  CUBIC_GRID_OVERAGE          => [  ]            
  CUBIC_GRID_SPACING          => [  ]            
  DAMPING_PERCENTAGE          => 0               
  DEBUG                       => 0               
  DERTYPE                     => NONE            
  DF_BASIS_CC                 => (empty)         
  DIAGONALIZE_HEFF            => FALSE           
  DIAGONAL_CCSD_T             => TRUE            
  DIE_IF_NOT_CONVERGED        => TRUE            
  DIIS_MAX_VECS               => 7               
  DIIS_START                  => 2               
  DKH_ORDER                   => 2               
  DOCC                        => [  ]            
  EXTERNAL_POTENTIAL_SYMMETRY => FALSE           
  E_CONVERGENCE               => 1e-10          !
  FAVG_CCSD_T                 => FALSE           
  FOLLOW_ROOT                 => 1               
  FREEZE_CORE                 => FALSE           
  FROZEN_DOCC                 => [ 0, 0, 0, 0 ] !
  FROZEN_UOCC                 => [ 0, 0, 0, 0 ] !
  HEFF4                       => FALSE          !
  HEFF_PRINT                  => FALSE           
  INTEGRAL_PACKAGE            => LIBINT          
  LITERAL_CFOUR               => (empty)         
  LOCK_SINGLET                => FALSE           
  MAT_NUM_COLUMN_PRINT        => 5               
  MAXITER                     => 100             
  MOLDEN_WITH_VIRTUAL         => TRUE            
  MP2_CCSD_METHOD             => II              
  MP2_GUESS                   => TRUE            
  MP2_TYPE                    => DF              
  MP_TYPE                     => CONV            
  NO_SINGLES                  => FALSE           
  NUM_FROZEN_DOCC             => 0               
  NUM_FROZEN_UOCC             => 0               
  OFFDIAGONAL_CCSD_T          => TRUE            
  PCM                         => FALSE           
  PCM_CC_TYPE                 => PTE             
  PCM_SCF_TYPE                => TOTAL           
  PERTURB_CBS                 => FALSE           
  PERTURB_CBS_COUPLING        => TRUE            
  PRINT                       => 1               
  PRINT_NOONS                 => 3               
  PROPERTIES                  => [  ]            
  PROPERTIES_ORIGIN           => [  ]            
  PT_ENERGY                   => SECOND_ORDER    
  PUREAM                      => TRUE            
  QC_MODULE                   => (empty)         
  RAS1                        => [  ]            
  RAS2                        => [  ]            
  RAS3                        => [  ]            
  RAS4                        => [  ]            
  RELATIVISTIC                => NO              
  RESTRICTED_DOCC             => [ 2, 0, 1, 0 ] !
  RESTRICTED_UOCC             => [  ]            
  R_CONVERGENCE               => 1e-10          !
  SMALL_CUTOFF                => 0               
  SOCC                        => [  ]            
  TIKHONOW_MAX                => 5               
  TIKHONOW_OMEGA              => 0               
  TIKHONOW_TRIPLES            => FALSE           
  TRIPLES_ALGORITHM           => RESTRICTED      
  TRIPLES_DIIS                => FALSE           
  UNITS                       => ANGSTROMS       
  USE_SPIN_SYM                => TRUE            
  USE_SPIN_SYMMETRY           => TRUE            
  WFN                         => SCF             
  WFN_SYM                     => B2             !
  WRITER_FILE_LABEL           => (empty)         
  ZERO_INTERNAL_AMPS          => TRUE            



  Heff Matrix

         -38.876572843760         0.034448819262
           0.034448819262       -38.876572843760

  Left Matrix

          -0.707106781187         0.707106781187
           0.707106781187         0.707106781187

  Right Matrix

          -0.707106781187         0.707106781187
           0.707106781187         0.707106781187

  Real                  Imaginary

        -38.911021663021           0.000000000000
        -38.842124024498           0.000000000000


  The eigenvalue for root 0 is -38.911021663021 (0.000000000000)

  Heff Matrix

      -38.876572843759817      0.034448819261514
        0.034448819261514    -38.876572843759817

  Most important determinants in the wave function

  determinant  eigenvector   eigenvector^2

            0   -0.707107     0.500000  |[22-][][2][+]>
            1    0.707107     0.500000  |[22+][][2][-]>

  ==============================================================================
  	Multireference Coupled Cluster
		Using the DPD Library
  ==============================================================================

  ------------------------------------------------------------------------------
  @CC Cycle      Energy          Delta E    ||DeltaT1|| ||DeltaT2|| Timing  DIIS
  @CC             [Eh]            [Eh]                               (Sec)
  ------------------------------------------------------------------------------
  @CC   0    -38.911021663021   0.0000e+00   0.000e+00   0.000e+00       0
  Tikhonow regularization turned on.  Omega = 0.000e+00   S
  @CC   1    -39.012803809277  -1.0178e-01   5.620e-02   2.307e-01       0
  Tikhonow regularization turned on.  Omega = 0.000e+00   S
  @CC   2    -39.029302489683  -1.6499e-02   1.612e-02   4.012e-02       0
  Tikhonow regularization turned on.  Omega = 0.000e+00   S
  @CC   3    -39.033143539278  -3.8410e-03   7.509e-03   1.434e-02       0
  Tikhonow regularization turned on.  Omega = 0.000e+00   S
  @CC   4    -39.034433659312  -1.2901e-03   4.254e-03   7.029e-03       0
  Tikhonow regularization turned on.  Omega = 0.000e+00   S
  @CC   5    -39.034989311964  -5.5565e-04   2.684e-03   3.891e-03       0   S
  @CC   6    -39.035266348601  -2.7704e-04   1.781e-03   2.335e-03       0   S/E
  @CC   7    -39.035663099750  -3.9675e-04   1.210e-03   1.483e-03       0   S
  @CC   8    -39.035658090608   5.0091e-06   4.939e-05   1.454e-04       0   S
  @CC   9    -39.035657804516   2.8609e-07   1.651e-05   7.655e-05       0   S
  @CC  10    -39.035657921889  -1.1737e-07   7.513e-06   5.021e-05       0   S
  @CC  11    -39.035658132828  -2.1094e-07   4.187e-06   3.426e-05       0   S
  @CC  12    -39.035658338737  -2.0591e-07   2.556e-06   2.379e-05       0   S
  @CC  13    -39.035658516352  -1.7761e-07   1.693e-06   1.670e-05       0   S/E
  @CC  14    -39.035659121554  -6.0520e-07   1.184e-06   1.179e-05       0   S
  @CC  15    -39.035659178938  -5.7384e-08   2.802e-07   3.039e-07       0   S
  @CC  16    -39.035659191003  -1.2065e-08   6.366e-08   1.006e-07       0   S
  @CC  17    -39.035659195727  -4.7235e-09   2.823e-08   5.188e-08       0   S
  @CC  18    -39.035659197974  -2.2469e-09   1.654e-08   2.992e-08       0   S
  @CC  19    -39.035659199197  -1.2238e-09   1.079e-08   1.833e-08       0   S
  @CC  20    -39.035659199914  -7.1614e-10   7.328e-09   1.165e-08       0   S/E
  @CC  21    -39.035659201161  -1.2478e-09   5.037e-09   7.587e-09       0   S
  @CC  22    -39.035659201164  -2.6006e-12   1.669e-10   5.517e-10       0   S
  @CC  23    -39.035659201169  -4.8246e-12   7.352e-11   2.893e-10       0   S
  @CC  24    -39.035659201172  -3.6309e-12   4.445e-11   1.930e-10       0   S
  @CC  25    -39.035659201175  -2.6645e-12   2.996e-11   1.339e-10       0   S
  @CC  26    -39.035659201177  -1.9327e-12   2.044e-11   9.426e-11       0
  ------------------------------------------------------------------------------

        Mk-MRCCSD total energy      =     -39.035659201177


  Heff Matrix

      -39.005469228427913      0.030189972749069
        0.030189972749069    -39.005469228427913

  Most important determinants in the wave function

  determinant  eigenvector   eigenvector^2

            0   -0.707107     0.500000  |[22-][][2][+]>
            1    0.707107     0.500000  |[22+][][2][-]>

  Timing for singles and doubles:             0.323001 s

  Computing (T) correction using the restricted loop algorithm.


  Mk-MRCCSD(T) diagonal contributions to the effective Hamiltonian:

   Ref         E[4]              E_T[4]            E_ST[4]           E_DT[4]
  ------------------------------------------------------------------------------
    0     -0.001945486774   -0.001938481421    0.000001473116   -0.000008478468
    1     -0.001945486774   -0.001938481421    0.000001473116   -0.000008478468
   Tot    -0.001945486774   -0.001938481421    0.000001473116   -0.000008478468
  ------------------------------------------------------------------------------

  Mk-MRCCSD(T) off-diagonal contributions to the effective Hamiltonian:

    0.000000000000    0.000293541513
    0.000293541513    0.000000000000

  Total     diagonal (T) correction:   -0.001945486774
  Total off-diagonal (T) correction:   -0.000293541513
  Total              (T) correction:   -0.002239028287

  Hamiltonian Matrix

      -39.007414715201655      0.030483514262209
        0.030483514262209    -39.007414715201655

  Computing the expectation value of Heff

      * Mk-MRCCSD(T) total energy   =        -39.037898229464

  Timing for triples:                         0.055584 s

  PSIMRCC job completed.
  Wall Time =             0.459598 s
  GEMM Time =             0.041303 s

  ==============================================================================
  Memory Usage Report

  Maximum memory used:     30.2 Mb 
  Number of objects still in memory: 0       Current bytes used: 0             
  ==============================================================================
	Nuclear repulsion energy..........................................PASSED
	SCF energy........................................................PASSED
	MkCCSD energy.....................................................PASSED

*** Psi4 exiting successfully. Buy a developer a beer!
