
    -----------------------------------------------------------------------
          Psi4: An Open-Source Ab Initio Electronic Structure Package
                               Psi4 1.2a1.dev562 

                         Git: Rev {dft_logic} 9506488 dirty


    R. M. Parrish, L. A. Burns, D. G. A. Smith, A. C. Simmonett,
    A. E. DePrince III, E. G. Hohenstein, U. Bozkaya, A. Yu. Sokolov,
    R. Di Remigio, R. M. Richard, J. F. Gonthier, A. M. James,
    H. R. McAlexander, A. Kumar, M. Saitow, X. Wang, B. P. Pritchard,
    P. Verma, H. F. Schaefer III, K. Patkowski, R. A. King, E. F. Valeev,
    F. A. Evangelista, J. M. Turney, T. D. Crawford, and C. D. Sherrill,
    J. Chem. Theory Comput. 13(7) pp 3185--3197 (2017).
    (doi: 10.1021/acs.jctc.7b00174)

    -----------------------------------------------------------------------


    Psi4 started on: Thursday, 21 September 2017 02:50AM

    Process ID:   9973
    PSIDATADIR: /home/psilocaluser/gits/hrw-dgas/objdir1/stage/usr/local/psi4/share/psi4
    Memory:     500.0 MiB
    Threads:    1
    
  ==> Input File <==

--------------------------------------------------------------------------
#! Omega optimization for LRC functional wB97 on water

molecule h2o {
0 1
O
H 1 1.0
H 1 1.0 2 104.5
}

set {
reference uks  # UKS, as we need to do neutral/cation
basis cc-pvdz
scf_type df
}

# Arguments are molecule object, minimum omega, maximum omega
#omega = ip_fitting('wb97', 0.4, 2.0, molecule=h2o)
omega = ip_fitting('wb97')

compare_values(0.56420, omega, 3, 'Fit Omega')  #TEST
compare_integers(0, h2o.molecular_charge(), 'Mol Chg')  #TEST
--------------------------------------------------------------------------
  Requested procedure `ip_fitting` does not make use of molecular symmetry: further calculations in C1 point group.

*** tstart() called on psinet
*** at Thu Sep 21 02:50:21 2017

   => Loading Basis Set <=

    Name: CC-PVDZ
    Role: ORBITAL
    Keyword: BASIS
    atoms 1   entry O          line   198 file /home/psilocaluser/gits/hrw-dgas/objdir1/stage/usr/local/psi4/share/psi4/basis/cc-pvdz.gbs 
    atoms 2-3 entry H          line    22 file /home/psilocaluser/gits/hrw-dgas/objdir1/stage/usr/local/psi4/share/psi4/basis/cc-pvdz.gbs 


         ---------------------------------------------------------
                          IP Fitting SCF: Burn-in                  
         ---------------------------------------------------------
                                   SCF
            by Justin Turney, Rob Parrish, Andy Simmonett
                             and Daniel Smith
                              UKS Reference
                        1 Threads,    500 MiB Core
         ---------------------------------------------------------

  ==> Geometry <==

    Molecular point group: c1
    Full point group: C2v

    Geometry (in Angstrom), charge = 0, multiplicity = 1:

       Center              X                  Y                   Z               Mass       
    ------------   -----------------  -----------------  -----------------  -----------------
           O          0.000000000000     0.000000000000    -0.068516219310    15.994914619560
           H          0.000000000000    -0.790689573744     0.543701060724     1.007825032070
           H          0.000000000000     0.790689573744     0.543701060724     1.007825032070

  Running in c1 symmetry.

  Rotational constants: A =     25.12555  B =     13.37733  C =      8.72955 [cm^-1]
  Rotational constants: A = 753245.06586  B = 401042.16407  C = 261705.25278 [MHz]
  Nuclear repulsion =    8.801465529972067

  Charge       = 0
  Multiplicity = 1
  Electrons    = 10
  Nalpha       = 5
  Nbeta        = 5

  ==> Algorithm <==

  SCF Algorithm Type is DF.
  DIIS enabled.
  MOM disabled.
  Fractional occupation disabled.
  Guess Type is GWH.
  Energy threshold   = 1.00e-06
  Density threshold  = 1.00e-06
  Integral threshold = 0.00e+00

  ==> Primary Basis <==

  Basis Set: CC-PVDZ
    Blend: CC-PVDZ
    Number of shells: 12
    Number of basis function: 24
    Number of Cartesian functions: 25
    Spherical Harmonics?: true
    Max angular momentum: 2

  ==> DFT Potential <==

   => Composite Functional: WB97 <= 

    WB97 GGA Exchange-Correlation Functional

    J.-D. Chai and M. Head-Gordon, J. Chem. Phys. 128, 084106 (2008)

    Deriv               =              1
    GGA                 =           TRUE
    Meta                =          FALSE

    Exchange Hybrid     =          FALSE
    MP2 Hybrid          =          FALSE

   => Exchange-Correlation Functionals <=

    1.0000   wB97 range-separated functional

   => Exact (HF) Exchange <=

    1.0000            HF,LR [omega = 0.4000]

   => Molecular Quadrature <=

    Radial Scheme       =       TREUTLER
    Pruning Scheme      =           FLAT
    Nuclear Scheme      =       TREUTLER

    BS radius alpha     =              1
    Pruning alpha       =              1
    Radial Points       =             75
    Spherical Points    =            302
    Total Points        =          66427
    Total Blocks        =            634
    Max Points          =            200
    Max Functions       =             24

   => Loading Basis Set <=

    Name: (CC-PVDZ AUX)
    Role: JKFIT
    Keyword: DF_BASIS_SCF
    atoms 1   entry O          line   221 file /home/psilocaluser/gits/hrw-dgas/objdir1/stage/usr/local/psi4/share/psi4/basis/cc-pvdz-jkfit.gbs 
    atoms 2-3 entry H          line    51 file /home/psilocaluser/gits/hrw-dgas/objdir1/stage/usr/local/psi4/share/psi4/basis/cc-pvdz-jkfit.gbs 

  ==> Pre-Iterations <==

   -------------------------------------------------------
    Irrep   Nso     Nmo     Nalpha   Nbeta   Ndocc  Nsocc
   -------------------------------------------------------
     A         24      24       0       0       0       0
   -------------------------------------------------------
    Total      24      24       5       5       5       0
   -------------------------------------------------------

  ==> Integral Setup <==

  ==> DFJK: Density-Fitted J/K Matrices <==

    J tasked:                  Yes
    K tasked:                   No
    wK tasked:                 Yes
    Omega:               4.000E-01
    OpenMP threads:              1
    Integrals threads:           1
    Memory (MB):               375
    Algorithm:                Core
    Integral Cache:           SAVE
    Schwarz Cutoff:          1E-12
    Fitting Condition:       1E-12

   => Auxiliary Basis Set <=

  Basis Set: (CC-PVDZ AUX)
    Blend: CC-PVDZ-JKFIT
    Number of shells: 42
    Number of basis function: 116
    Number of Cartesian functions: 131
    Spherical Harmonics?: true
    Max angular momentum: 3

  Minimum eigenvalue in the overlap matrix is 3.7382439507E-02.
  Using Symmetric Orthogonalization.

  SCF Guess: Generalized Wolfsberg-Helmholtz.

  ==> Iterations <==

                           Total Energy        Delta E     RMS |[F,P]|

   @DF-UKS iter   1:   -74.70858374752515   -7.47086e+01   9.06425e-02 
   @DF-UKS iter   2:   -74.94602527411396   -2.37442e-01   7.55908e-02 DIIS
   @DF-UKS iter   3:   -76.38632239025077   -1.44030e+00   8.14097e-03 DIIS
   @DF-UKS iter   4:   -76.40293835258829   -1.66160e-02   6.60351e-04 DIIS
   @DF-UKS iter   5:   -76.40324760611443   -3.09254e-04   1.63557e-04 DIIS
   @DF-UKS iter   6:   -76.40327052179799   -2.29157e-05   4.45272e-05 DIIS
   @DF-UKS iter   7:   -76.40327310114149   -2.57934e-06   1.21704e-05 DIIS
   @DF-UKS iter   8:   -76.40327317360676   -7.24653e-08   7.32954e-07 DIIS

  ==> Post-Iterations <==

   @Spin Contamination Metric:   3.552713679E-15
   @S^2 Expected:                0.000000000E+00
   @S^2 Observed:                3.552713679E-15
   @S   Expected:                0.000000000E+00
   @S   Observed:                0.000000000E+00

    Orbital Energies (a.u.)
    -----------------------

    Alpha Occupied:                                                       

       1A    -18.998896     2A     -1.109502     3A     -0.618723  
       4A     -0.481224     5A     -0.404431  

    Alpha Virtual:                                                        

       6A      0.154179     7A      0.229388     8A      0.658210  
       9A      0.705480    10A      1.030061    11A      1.049318  
      12A      1.119571    13A      1.333644    14A      1.347838  
      15A      1.546232    16A      1.722733    17A      1.756644  
      18A      2.150761    19A      2.185070    20A      2.998146  
      21A      3.038578    22A      3.186545    23A      3.537953  
      24A      3.803242  

    Beta Occupied:                                                        

       1A    -18.998896     2A     -1.109502     3A     -0.618723  
       4A     -0.481224     5A     -0.404431  

    Beta Virtual:                                                         

       6A      0.154179     7A      0.229388     8A      0.658210  
       9A      0.705480    10A      1.030061    11A      1.049318  
      12A      1.119571    13A      1.333644    14A      1.347838  
      15A      1.546232    16A      1.722733    17A      1.756644  
      18A      2.150761    19A      2.185070    20A      2.998146  
      21A      3.038578    22A      3.186545    23A      3.537953  
      24A      3.803242  

    Final Occupation by Irrep:
              A 
    DOCC [     5 ]
    SOCC [     0 ]

  Energy converged.

  @DF-UKS Final Energy:   -76.40327317360676

   => Energetics <=

    Nuclear Repulsion Energy =              8.8014655299720665
    One-Electron Energy =                -122.4601784885594213
    Two-Electron Energy =                  44.5253620992090049
    DFT Exchange-Correlation Energy =      -7.2699223142284044
    Empirical Dispersion Energy =           0.0000000000000000
    VV10 Nonlocal Energy =                  0.0000000000000000
    Total Energy =                        -76.4032731736067632


  UHF NO Occupations:
  HONO-2 :    3  A 2.0000000
  HONO-1 :    4  A 2.0000000
  HONO-0 :    5  A 2.0000000
  LUNO+0 :    6  A 0.0000000
  LUNO+1 :    7  A 0.0000000
  LUNO+2 :    8  A 0.0000000
  LUNO+3 :    9  A 0.0000000



Properties will be evaluated at   0.000000,   0.000000,   0.000000 Bohr

Properties computed using the SCF density matrix

  Nuclear Dipole Moment: (a.u.)
     X:     0.0000      Y:     0.0000      Z:     1.0191

  Electronic Dipole Moment: (a.u.)
     X:    -0.0000      Y:    -0.0000      Z:    -0.2451

  Dipole Moment: (a.u.)
     X:    -0.0000      Y:    -0.0000      Z:     0.7740     Total:     0.7740

  Dipole Moment: (Debye)
     X:    -0.0000      Y:    -0.0000      Z:     1.9673     Total:     1.9673


*** tstop() called on psinet at Thu Sep 21 02:50:23 2017
Module time:
	user time   =       2.04 seconds =       0.03 minutes
	system time =       0.01 seconds =       0.00 minutes
	total time  =          2 seconds =       0.03 minutes
Total time:
	user time   =       2.04 seconds =       0.03 minutes
	system time =       0.01 seconds =       0.00 minutes
	total time  =          2 seconds =       0.03 minutes

*** tstart() called on psinet
*** at Thu Sep 21 02:50:23 2017

   => Loading Basis Set <=

    Name: CC-PVDZ
    Role: ORBITAL
    Keyword: BASIS
    atoms 1   entry O          line   198 file /home/psilocaluser/gits/hrw-dgas/objdir1/stage/usr/local/psi4/share/psi4/basis/cc-pvdz.gbs 
    atoms 2-3 entry H          line    22 file /home/psilocaluser/gits/hrw-dgas/objdir1/stage/usr/local/psi4/share/psi4/basis/cc-pvdz.gbs 


         ---------------------------------------------------------
                  IP Fitting SCF: Neutral, Right Endpoint          
         ---------------------------------------------------------
                                   SCF
            by Justin Turney, Rob Parrish, Andy Simmonett
                             and Daniel Smith
                              UKS Reference
                        1 Threads,    500 MiB Core
         ---------------------------------------------------------

  ==> Geometry <==

    Molecular point group: c1
    Full point group: C2v

    Geometry (in Angstrom), charge = 0, multiplicity = 1:

       Center              X                  Y                   Z               Mass       
    ------------   -----------------  -----------------  -----------------  -----------------
           O          0.000000000000     0.000000000000    -0.068516219310    15.994914619560
           H          0.000000000000    -0.790689573744     0.543701060724     1.007825032070
           H          0.000000000000     0.790689573744     0.543701060724     1.007825032070

  Running in c1 symmetry.

  Rotational constants: A =     25.12555  B =     13.37733  C =      8.72955 [cm^-1]
  Rotational constants: A = 753245.06586  B = 401042.16407  C = 261705.25278 [MHz]
  Nuclear repulsion =    8.801465529972067

  Charge       = 0
  Multiplicity = 1
  Electrons    = 10
  Nalpha       = 5
  Nbeta        = 5

  ==> Algorithm <==

  SCF Algorithm Type is DF.
  DIIS enabled.
  MOM disabled.
  Fractional occupation disabled.
  Guess Type is GWH.
  Energy threshold   = 1.00e-06
  Density threshold  = 1.00e-06
  Integral threshold = 0.00e+00

  ==> Primary Basis <==

  Basis Set: CC-PVDZ
    Blend: CC-PVDZ
    Number of shells: 12
    Number of basis function: 24
    Number of Cartesian functions: 25
    Spherical Harmonics?: true
    Max angular momentum: 2

  ==> DFT Potential <==

   => Composite Functional: WB97 <= 

    WB97 GGA Exchange-Correlation Functional

    J.-D. Chai and M. Head-Gordon, J. Chem. Phys. 128, 084106 (2008)

    Deriv               =              1
    GGA                 =           TRUE
    Meta                =          FALSE

    Exchange Hybrid     =          FALSE
    MP2 Hybrid          =          FALSE

   => Exchange-Correlation Functionals <=

    1.0000   wB97 range-separated functional

   => Exact (HF) Exchange <=

    1.0000            HF,LR [omega = 2.5000]

   => Molecular Quadrature <=

    Radial Scheme       =       TREUTLER
    Pruning Scheme      =           FLAT
    Nuclear Scheme      =       TREUTLER

    BS radius alpha     =              1
    Pruning alpha       =              1
    Radial Points       =             75
    Spherical Points    =            302
    Total Points        =          66427
    Total Blocks        =            634
    Max Points          =            200
    Max Functions       =             24

   => Loading Basis Set <=

    Name: (CC-PVDZ AUX)
    Role: JKFIT
    Keyword: DF_BASIS_SCF
    atoms 1   entry O          line   221 file /home/psilocaluser/gits/hrw-dgas/objdir1/stage/usr/local/psi4/share/psi4/basis/cc-pvdz-jkfit.gbs 
    atoms 2-3 entry H          line    51 file /home/psilocaluser/gits/hrw-dgas/objdir1/stage/usr/local/psi4/share/psi4/basis/cc-pvdz-jkfit.gbs 

  ==> Pre-Iterations <==

   -------------------------------------------------------
    Irrep   Nso     Nmo     Nalpha   Nbeta   Ndocc  Nsocc
   -------------------------------------------------------
     A         24      24       0       0       0       0
   -------------------------------------------------------
    Total      24      24       5       5       5       0
   -------------------------------------------------------

  ==> Integral Setup <==

    Rebuilding (Q|w|mn) Integrals (new omega)

  ==> DFJK: Density-Fitted J/K Matrices <==

    J tasked:                  Yes
    K tasked:                   No
    wK tasked:                 Yes
    Omega:               2.500E+00
    OpenMP threads:              1
    Integrals threads:           1
    Memory (MB):               375
    Algorithm:                Core
    Integral Cache:           LOAD
    Schwarz Cutoff:          1E-12
    Fitting Condition:       1E-12

   => Auxiliary Basis Set <=

  Basis Set: (CC-PVDZ AUX)
    Blend: CC-PVDZ-JKFIT
    Number of shells: 42
    Number of basis function: 116
    Number of Cartesian functions: 131
    Spherical Harmonics?: true
    Max angular momentum: 3

  Minimum eigenvalue in the overlap matrix is 3.7382439507E-02.
  Using Symmetric Orthogonalization.

  SCF Guess: Generalized Wolfsberg-Helmholtz.

  ==> Iterations <==

                           Total Energy        Delta E     RMS |[F,P]|

   @DF-UKS iter   1:   -74.73782723939723   -7.47378e+01   8.99438e-02 
   @DF-UKS iter   2:   -75.77649902688682   -1.03867e+00   5.15537e-02 DIIS
   @DF-UKS iter   3:   -76.35954831210276   -5.83049e-01   4.39754e-03 DIIS
   @DF-UKS iter   4:   -76.36473424744412   -5.18594e-03   6.47817e-04 DIIS
   @DF-UKS iter   5:   -76.36491806815647   -1.83821e-04   9.00198e-05 DIIS
   @DF-UKS iter   6:   -76.36492229258573   -4.22443e-06   1.86722e-05 DIIS
   @DF-UKS iter   7:   -76.36492253661277   -2.44027e-07   3.74003e-06 DIIS
   @DF-UKS iter   8:   -76.36492254632648   -9.71372e-09   6.24224e-07 DIIS

  ==> Post-Iterations <==

   @Spin Contamination Metric:  -3.552713679E-15
   @S^2 Expected:                0.000000000E+00
   @S^2 Observed:               -3.552713679E-15
   @S   Expected:                0.000000000E+00
   @S   Observed:                0.000000000E+00

    Orbital Energies (a.u.)
    -----------------------

    Alpha Occupied:                                                       

       1A    -19.921338     2A     -1.346997     3A     -0.713273  
       4A     -0.593131     5A     -0.522724  

    Alpha Virtual:                                                        

       6A      0.168434     7A      0.244717     8A      0.737662  
       9A      0.795002    10A      1.127884    11A      1.159773  
      12A      1.220891    13A      1.421870    14A      1.434805  
      15A      1.636851    16A      1.852514    17A      1.858263  
      18A      2.310240    19A      2.346547    20A      3.205597  
      21A      3.253525    22A      3.406155    23A      3.775503  
      24A      4.055739  

    Beta Occupied:                                                        

       1A    -19.921338     2A     -1.346997     3A     -0.713273  
       4A     -0.593131     5A     -0.522724  

    Beta Virtual:                                                         

       6A      0.168434     7A      0.244717     8A      0.737662  
       9A      0.795002    10A      1.127884    11A      1.159773  
      12A      1.220891    13A      1.421870    14A      1.434805  
      15A      1.636851    16A      1.852514    17A      1.858263  
      18A      2.310240    19A      2.346547    20A      3.205597  
      21A      3.253525    22A      3.406155    23A      3.775503  
      24A      4.055739  

    Final Occupation by Irrep:
              A 
    DOCC [     5 ]
    SOCC [     0 ]

  Energy converged.

  @DF-UKS Final Energy:   -76.36492254632648

   => Energetics <=

    Nuclear Repulsion Energy =              8.8014655299720665
    One-Electron Energy =                -122.5714526514157967
    Two-Electron Energy =                  40.6195910305876353
    DFT Exchange-Correlation Energy =      -3.2145264554703803
    Empirical Dispersion Energy =           0.0000000000000000
    VV10 Nonlocal Energy =                  0.0000000000000000
    Total Energy =                        -76.3649225463264827


  UHF NO Occupations:
  HONO-2 :    3  A 2.0000000
  HONO-1 :    4  A 2.0000000
  HONO-0 :    5  A 2.0000000
  LUNO+0 :    6  A 0.0000000
  LUNO+1 :    7  A 0.0000000
  LUNO+2 :    8  A 0.0000000
  LUNO+3 :    9  A 0.0000000



Properties will be evaluated at   0.000000,   0.000000,   0.000000 Bohr

Properties computed using the SCF density matrix

  Nuclear Dipole Moment: (a.u.)
     X:     0.0000      Y:     0.0000      Z:     1.0191

  Electronic Dipole Moment: (a.u.)
     X:    -0.0000      Y:    -0.0000      Z:    -0.1680

  Dipole Moment: (a.u.)
     X:    -0.0000      Y:    -0.0000      Z:     0.8510     Total:     0.8510

  Dipole Moment: (Debye)
     X:    -0.0000      Y:    -0.0000      Z:     2.1631     Total:     2.1631


*** tstop() called on psinet at Thu Sep 21 02:50:25 2017
Module time:
	user time   =       1.93 seconds =       0.03 minutes
	system time =       0.01 seconds =       0.00 minutes
	total time  =          2 seconds =       0.03 minutes
Total time:
	user time   =       3.98 seconds =       0.07 minutes
	system time =       0.02 seconds =       0.00 minutes
	total time  =          4 seconds =       0.07 minutes

*** tstart() called on psinet
*** at Thu Sep 21 02:50:25 2017

   => Loading Basis Set <=

    Name: CC-PVDZ
    Role: ORBITAL
    Keyword: BASIS
    atoms 1   entry O          line   198 file /home/psilocaluser/gits/hrw-dgas/objdir1/stage/usr/local/psi4/share/psi4/basis/cc-pvdz.gbs 
    atoms 2-3 entry H          line    22 file /home/psilocaluser/gits/hrw-dgas/objdir1/stage/usr/local/psi4/share/psi4/basis/cc-pvdz.gbs 


         ---------------------------------------------------------
                   IP Fitting SCF: Cation, Right Endpoint          
         ---------------------------------------------------------
                                   SCF
            by Justin Turney, Rob Parrish, Andy Simmonett
                             and Daniel Smith
                              UKS Reference
                        1 Threads,    500 MiB Core
         ---------------------------------------------------------

  ==> Geometry <==

    Molecular point group: c1
    Full point group: C2v

    Geometry (in Angstrom), charge = 1, multiplicity = 2:

       Center              X                  Y                   Z               Mass       
    ------------   -----------------  -----------------  -----------------  -----------------
           O          0.000000000000     0.000000000000    -0.068516219310    15.994914619560
           H          0.000000000000    -0.790689573744     0.543701060724     1.007825032070
           H          0.000000000000     0.790689573744     0.543701060724     1.007825032070

  Running in c1 symmetry.

  Rotational constants: A =     25.12555  B =     13.37733  C =      8.72955 [cm^-1]
  Rotational constants: A = 753245.06586  B = 401042.16407  C = 261705.25278 [MHz]
  Nuclear repulsion =    8.801465529972067

  Charge       = 1
  Multiplicity = 2
  Electrons    = 9
  Nalpha       = 5
  Nbeta        = 4

  ==> Algorithm <==

  SCF Algorithm Type is DF.
  DIIS enabled.
  MOM disabled.
  Fractional occupation disabled.
  Guess Type is GWH.
  Energy threshold   = 1.00e-06
  Density threshold  = 1.00e-06
  Integral threshold = 0.00e+00

  ==> Primary Basis <==

  Basis Set: CC-PVDZ
    Blend: CC-PVDZ
    Number of shells: 12
    Number of basis function: 24
    Number of Cartesian functions: 25
    Spherical Harmonics?: true
    Max angular momentum: 2

  ==> DFT Potential <==

   => Composite Functional: WB97 <= 

    WB97 GGA Exchange-Correlation Functional

    J.-D. Chai and M. Head-Gordon, J. Chem. Phys. 128, 084106 (2008)

    Deriv               =              1
    GGA                 =           TRUE
    Meta                =          FALSE

    Exchange Hybrid     =          FALSE
    MP2 Hybrid          =          FALSE

   => Exchange-Correlation Functionals <=

    1.0000   wB97 range-separated functional

   => Exact (HF) Exchange <=

    1.0000            HF,LR [omega = 2.5000]

   => Molecular Quadrature <=

    Radial Scheme       =       TREUTLER
    Pruning Scheme      =           FLAT
    Nuclear Scheme      =       TREUTLER

    BS radius alpha     =              1
    Pruning alpha       =              1
    Radial Points       =             75
    Spherical Points    =            302
    Total Points        =          66427
    Total Blocks        =            634
    Max Points          =            200
    Max Functions       =             24

   => Loading Basis Set <=

    Name: (CC-PVDZ AUX)
    Role: JKFIT
    Keyword: DF_BASIS_SCF
    atoms 1   entry O          line   221 file /home/psilocaluser/gits/hrw-dgas/objdir1/stage/usr/local/psi4/share/psi4/basis/cc-pvdz-jkfit.gbs 
    atoms 2-3 entry H          line    51 file /home/psilocaluser/gits/hrw-dgas/objdir1/stage/usr/local/psi4/share/psi4/basis/cc-pvdz-jkfit.gbs 

  ==> Pre-Iterations <==

   -------------------------------------------------------
    Irrep   Nso     Nmo     Nalpha   Nbeta   Ndocc  Nsocc
   -------------------------------------------------------
     A         24      24       0       0       0       0
   -------------------------------------------------------
    Total      24      24       5       4       4       1
   -------------------------------------------------------

  ==> Integral Setup <==

  ==> DFJK: Density-Fitted J/K Matrices <==

    J tasked:                  Yes
    K tasked:                   No
    wK tasked:                 Yes
    Omega:               2.500E+00
    OpenMP threads:              1
    Integrals threads:           1
    Memory (MB):               375
    Algorithm:                Core
    Integral Cache:           LOAD
    Schwarz Cutoff:          1E-12
    Fitting Condition:       1E-12

   => Auxiliary Basis Set <=

  Basis Set: (CC-PVDZ AUX)
    Blend: CC-PVDZ-JKFIT
    Number of shells: 42
    Number of basis function: 116
    Number of Cartesian functions: 131
    Spherical Harmonics?: true
    Max angular momentum: 3

  Minimum eigenvalue in the overlap matrix is 3.7382439507E-02.
  Using Symmetric Orthogonalization.

  SCF Guess: Generalized Wolfsberg-Helmholtz.

  ==> Iterations <==

                           Total Energy        Delta E     RMS |[F,P]|

   @DF-UKS iter   1:   -75.09649262732758   -7.50965e+01   7.01847e-02 
   @DF-UKS iter   2:   -75.81358145024913   -7.17089e-01   2.36470e-02 DIIS
   @DF-UKS iter   3:   -75.92649387204671   -1.12912e-01   2.90484e-03 DIIS
   @DF-UKS iter   4:   -75.92914628911868   -2.65242e-03   6.15804e-04 DIIS
   @DF-UKS iter   5:   -75.92933080380602   -1.84515e-04   1.36769e-04 DIIS
   @DF-UKS iter   6:   -75.92934324203685   -1.24382e-05   5.05994e-05 DIIS
   @DF-UKS iter   7:   -75.92934538635089   -2.14431e-06   1.33311e-05 DIIS
   @DF-UKS iter   8:   -75.92934554592598   -1.59575e-07   2.08977e-06 DIIS
   @DF-UKS iter   9:   -75.92934554864443   -2.71845e-09   1.97662e-07 DIIS

  ==> Post-Iterations <==

   @Spin Contamination Metric:   4.942381012E-03
   @S^2 Expected:                7.500000000E-01
   @S^2 Observed:                7.549423810E-01
   @S   Expected:                5.000000000E-01
   @S   Observed:                5.000000000E-01

    Orbital Energies (a.u.)
    -----------------------

    Alpha Occupied:                                                       

       1A    -20.489602     2A     -1.911882     3A     -1.223578  
       4A     -1.136937     5A     -1.114508  

    Alpha Virtual:                                                        

       6A     -0.158523     7A     -0.075946     8A      0.355330  
       9A      0.399060    10A      0.660526    11A      0.686096  
      12A      0.800941    13A      1.005533    14A      1.006934  
      15A      1.212398    16A      1.383891    17A      1.456869  
      18A      1.864984    19A      1.877131    20A      2.655816  
      21A      2.701146    22A      2.906573    23A      3.249200  
      24A      3.571269  

    Beta Occupied:                                                        

       1A    -20.467007     2A     -1.767677     3A     -1.189556  
       4A     -1.069756  

    Beta Virtual:                                                         

       5A     -0.370963     6A     -0.141890     7A     -0.067104  
       8A      0.355352     9A      0.415494    10A      0.697846  
      11A      0.803012    12A      0.807299    13A      1.016888  
      14A      1.028280    15A      1.230504    16A      1.378395  
      17A      1.456847    18A      1.877557    19A      1.923423  
      20A      2.753832    21A      2.801473    22A      2.937540  
      23A      3.328519    24A      3.589377  

    Final Occupation by Irrep:
              A 
    DOCC [     4 ]
    SOCC [     1 ]

  Energy converged.

  @DF-UKS Final Energy:   -75.92934554864443

   => Energetics <=

    Nuclear Repulsion Energy =              8.8014655299720665
    One-Electron Energy =                -117.5582830387473052
    Two-Electron Energy =                  35.9933619375770917
    DFT Exchange-Correlation Energy =      -3.1658899774462825
    Empirical Dispersion Energy =           0.0000000000000000
    VV10 Nonlocal Energy =                  0.0000000000000000
    Total Energy =                        -75.9293455486444344


  UHF NO Occupations:
  HONO-2 :    3  A 1.9993697
  HONO-1 :    4  A 1.9984174
  HONO-0 :    5  A 1.0000000
  LUNO+0 :    6  A 0.0015826
  LUNO+1 :    7  A 0.0006303
  LUNO+2 :    8  A 0.0002597
  LUNO+3 :    9  A 0.0000001



Properties will be evaluated at   0.000000,   0.000000,   0.000000 Bohr

Properties computed using the SCF density matrix

  Nuclear Dipole Moment: (a.u.)
     X:     0.0000      Y:     0.0000      Z:     1.0191

  Electronic Dipole Moment: (a.u.)
     X:     0.0000      Y:    -0.0000      Z:     0.0391

  Dipole Moment: (a.u.)
     X:     0.0000      Y:    -0.0000      Z:     1.0582     Total:     1.0582

  Dipole Moment: (Debye)
     X:     0.0000      Y:    -0.0000      Z:     2.6897     Total:     2.6897


*** tstop() called on psinet at Thu Sep 21 02:50:27 2017
Module time:
	user time   =       2.20 seconds =       0.04 minutes
	system time =       0.01 seconds =       0.00 minutes
	total time  =          2 seconds =       0.03 minutes
Total time:
	user time   =       6.18 seconds =       0.10 minutes
	system time =       0.03 seconds =       0.00 minutes
	total time  =          6 seconds =       0.10 minutes

*** tstart() called on psinet
*** at Thu Sep 21 02:50:27 2017

   => Loading Basis Set <=

    Name: CC-PVDZ
    Role: ORBITAL
    Keyword: BASIS
    atoms 1   entry O          line   198 file /home/psilocaluser/gits/hrw-dgas/objdir1/stage/usr/local/psi4/share/psi4/basis/cc-pvdz.gbs 
    atoms 2-3 entry H          line    22 file /home/psilocaluser/gits/hrw-dgas/objdir1/stage/usr/local/psi4/share/psi4/basis/cc-pvdz.gbs 


         ---------------------------------------------------------
                   IP Fitting SCF: Neutral, Left Endpoint          
         ---------------------------------------------------------
                                   SCF
            by Justin Turney, Rob Parrish, Andy Simmonett
                             and Daniel Smith
                              UKS Reference
                        1 Threads,    500 MiB Core
         ---------------------------------------------------------

  ==> Geometry <==

    Molecular point group: c1
    Full point group: C2v

    Geometry (in Angstrom), charge = 0, multiplicity = 1:

       Center              X                  Y                   Z               Mass       
    ------------   -----------------  -----------------  -----------------  -----------------
           O          0.000000000000     0.000000000000    -0.068516219310    15.994914619560
           H          0.000000000000    -0.790689573744     0.543701060724     1.007825032070
           H          0.000000000000     0.790689573744     0.543701060724     1.007825032070

  Running in c1 symmetry.

  Rotational constants: A =     25.12555  B =     13.37733  C =      8.72955 [cm^-1]
  Rotational constants: A = 753245.06586  B = 401042.16407  C = 261705.25278 [MHz]
  Nuclear repulsion =    8.801465529972067

  Charge       = 0
  Multiplicity = 1
  Electrons    = 10
  Nalpha       = 5
  Nbeta        = 5

  ==> Algorithm <==

  SCF Algorithm Type is DF.
  DIIS enabled.
  MOM disabled.
  Fractional occupation disabled.
  Guess Type is READ.
  Energy threshold   = 1.00e-06
  Density threshold  = 1.00e-06
  Integral threshold = 0.00e+00

  ==> Primary Basis <==

  Basis Set: CC-PVDZ
    Blend: CC-PVDZ
    Number of shells: 12
    Number of basis function: 24
    Number of Cartesian functions: 25
    Spherical Harmonics?: true
    Max angular momentum: 2

  ==> DFT Potential <==

   => Composite Functional: WB97 <= 

    WB97 GGA Exchange-Correlation Functional

    J.-D. Chai and M. Head-Gordon, J. Chem. Phys. 128, 084106 (2008)

    Deriv               =              1
    GGA                 =           TRUE
    Meta                =          FALSE

    Exchange Hybrid     =          FALSE
    MP2 Hybrid          =          FALSE

   => Exchange-Correlation Functionals <=

    1.0000   wB97 range-separated functional

   => Exact (HF) Exchange <=

    1.0000            HF,LR [omega = 0.0500]

   => Molecular Quadrature <=

    Radial Scheme       =       TREUTLER
    Pruning Scheme      =           FLAT
    Nuclear Scheme      =       TREUTLER

    BS radius alpha     =              1
    Pruning alpha       =              1
    Radial Points       =             75
    Spherical Points    =            302
    Total Points        =          66427
    Total Blocks        =            634
    Max Points          =            200
    Max Functions       =             24

   => Loading Basis Set <=

    Name: (CC-PVDZ AUX)
    Role: JKFIT
    Keyword: DF_BASIS_SCF
    atoms 1   entry O          line   221 file /home/psilocaluser/gits/hrw-dgas/objdir1/stage/usr/local/psi4/share/psi4/basis/cc-pvdz-jkfit.gbs 
    atoms 2-3 entry H          line    51 file /home/psilocaluser/gits/hrw-dgas/objdir1/stage/usr/local/psi4/share/psi4/basis/cc-pvdz-jkfit.gbs 

  Reading orbitals from file 180, no projection.

  ==> Pre-Iterations <==

   -------------------------------------------------------
    Irrep   Nso     Nmo     Nalpha   Nbeta   Ndocc  Nsocc
   -------------------------------------------------------
     A         24      24       5       5       5       0
   -------------------------------------------------------
    Total      24      24       5       5       5       0
   -------------------------------------------------------

  ==> Integral Setup <==

    Rebuilding (Q|w|mn) Integrals (new omega)

  ==> DFJK: Density-Fitted J/K Matrices <==

    J tasked:                  Yes
    K tasked:                   No
    wK tasked:                 Yes
    Omega:               5.000E-02
    OpenMP threads:              1
    Integrals threads:           1
    Memory (MB):               375
    Algorithm:                Core
    Integral Cache:           LOAD
    Schwarz Cutoff:          1E-12
    Fitting Condition:       1E-12

   => Auxiliary Basis Set <=

  Basis Set: (CC-PVDZ AUX)
    Blend: CC-PVDZ-JKFIT
    Number of shells: 42
    Number of basis function: 116
    Number of Cartesian functions: 131
    Spherical Harmonics?: true
    Max angular momentum: 3

  Minimum eigenvalue in the overlap matrix is 3.7382439507E-02.
  Using Symmetric Orthogonalization.

  SCF Guess: Orbitals guess was supplied from a previous computation.

  ==> Iterations <==

                           Total Energy        Delta E     RMS |[F,P]|

   @DF-UKS iter   0:   -76.04039300468796   -7.60404e+01   3.83218e-03 
   @DF-UKS iter   1:   -76.38623702024734   -3.45844e-01   1.93131e-02 
   @DF-UKS iter   2:   -76.29042879127965    9.58082e-02   2.91461e-02 DIIS
   @DF-UKS iter   3:   -76.47597044072747   -1.85542e-01   9.12978e-04 DIIS
   @DF-UKS iter   4:   -76.47624494563856   -2.74505e-04   3.25770e-04 DIIS
   @DF-UKS iter   5:   -76.47627861808992   -3.36725e-05   5.77434e-05 DIIS
   @DF-UKS iter   6:   -76.47628052451563   -1.90643e-06   1.45652e-05 DIIS
   @DF-UKS iter   7:   -76.47628069525132   -1.70736e-07   1.48168e-06 DIIS
   @DF-UKS iter   8:   -76.47628069693053   -1.67921e-09   2.72838e-07 DIIS

  ==> Post-Iterations <==

   @Spin Contamination Metric:   4.494182804E-13
   @S^2 Expected:                0.000000000E+00
   @S^2 Observed:                4.494182804E-13
   @S   Expected:                0.000000000E+00
   @S   Observed:                0.000000000E+00

    Orbital Energies (a.u.)
    -----------------------

    Alpha Occupied:                                                       

       1A    -18.816638     2A     -0.914267     3A     -0.463754  
       4A     -0.324027     5A     -0.240638  

    Alpha Virtual:                                                        

       6A      0.074758     7A      0.143465     8A      0.528667  
       9A      0.568706    10A      0.903438    11A      0.918710  
      12A      1.000075    13A      1.196707    14A      1.201200  
      15A      1.400911    16A      1.577831    17A      1.606699  
      18A      1.992121    19A      2.026012    20A      2.824382  
      21A      2.863256    22A      3.013164    23A      3.366436  
      24A      3.634925  

    Beta Occupied:                                                        

       1A    -18.816638     2A     -0.914267     3A     -0.463754  
       4A     -0.324027     5A     -0.240638  

    Beta Virtual:                                                         

       6A      0.074758     7A      0.143465     8A      0.528667  
       9A      0.568706    10A      0.903438    11A      0.918710  
      12A      1.000075    13A      1.196707    14A      1.201200  
      15A      1.400911    16A      1.577831    17A      1.606699  
      18A      1.992121    19A      2.026012    20A      2.824382  
      21A      2.863256    22A      3.013164    23A      3.366436  
      24A      3.634925  

    Final Occupation by Irrep:
              A 
    DOCC [     5 ]
    SOCC [     0 ]

  Energy converged.

  @DF-UKS Final Energy:   -76.47628069693053

   => Energetics <=

    Nuclear Repulsion Energy =              8.8014655299720665
    One-Electron Energy =                -122.4672994303592475
    Two-Electron Energy =                  46.2999561300560813
    DFT Exchange-Correlation Energy =      -9.1104029265994324
    Empirical Dispersion Energy =           0.0000000000000000
    VV10 Nonlocal Energy =                  0.0000000000000000
    Total Energy =                        -76.4762806969305444


  UHF NO Occupations:
  HONO-2 :    3  A 2.0000000
  HONO-1 :    4  A 2.0000000
  HONO-0 :    5  A 2.0000000
  LUNO+0 :    6  A 0.0000000
  LUNO+1 :    7  A 0.0000000
  LUNO+2 :    8  A 0.0000000
  LUNO+3 :    9  A 0.0000000



Properties will be evaluated at   0.000000,   0.000000,   0.000000 Bohr

Properties computed using the SCF density matrix

  Nuclear Dipole Moment: (a.u.)
     X:     0.0000      Y:     0.0000      Z:     1.0191

  Electronic Dipole Moment: (a.u.)
     X:    -0.0000      Y:    -0.0000      Z:    -0.3085

  Dipole Moment: (a.u.)
     X:    -0.0000      Y:    -0.0000      Z:     0.7106     Total:     0.7106

  Dipole Moment: (Debye)
     X:    -0.0000      Y:    -0.0000      Z:     1.8061     Total:     1.8061


*** tstop() called on psinet at Thu Sep 21 02:50:29 2017
Module time:
	user time   =       2.19 seconds =       0.04 minutes
	system time =       0.01 seconds =       0.00 minutes
	total time  =          2 seconds =       0.03 minutes
Total time:
	user time   =       8.38 seconds =       0.14 minutes
	system time =       0.04 seconds =       0.00 minutes
	total time  =          8 seconds =       0.13 minutes

*** tstart() called on psinet
*** at Thu Sep 21 02:50:29 2017

   => Loading Basis Set <=

    Name: CC-PVDZ
    Role: ORBITAL
    Keyword: BASIS
    atoms 1   entry O          line   198 file /home/psilocaluser/gits/hrw-dgas/objdir1/stage/usr/local/psi4/share/psi4/basis/cc-pvdz.gbs 
    atoms 2-3 entry H          line    22 file /home/psilocaluser/gits/hrw-dgas/objdir1/stage/usr/local/psi4/share/psi4/basis/cc-pvdz.gbs 


         ---------------------------------------------------------
                   IP Fitting SCF: Cation, Left Endpoint           
         ---------------------------------------------------------
                                   SCF
            by Justin Turney, Rob Parrish, Andy Simmonett
                             and Daniel Smith
                              UKS Reference
                        1 Threads,    500 MiB Core
         ---------------------------------------------------------

  ==> Geometry <==

    Molecular point group: c1
    Full point group: C2v

    Geometry (in Angstrom), charge = 1, multiplicity = 2:

       Center              X                  Y                   Z               Mass       
    ------------   -----------------  -----------------  -----------------  -----------------
           O          0.000000000000     0.000000000000    -0.068516219310    15.994914619560
           H          0.000000000000    -0.790689573744     0.543701060724     1.007825032070
           H          0.000000000000     0.790689573744     0.543701060724     1.007825032070

  Running in c1 symmetry.

  Rotational constants: A =     25.12555  B =     13.37733  C =      8.72955 [cm^-1]
  Rotational constants: A = 753245.06586  B = 401042.16407  C = 261705.25278 [MHz]
  Nuclear repulsion =    8.801465529972067

  Charge       = 1
  Multiplicity = 2
  Electrons    = 9
  Nalpha       = 5
  Nbeta        = 4

  ==> Algorithm <==

  SCF Algorithm Type is DF.
  DIIS enabled.
  MOM disabled.
  Fractional occupation disabled.
  Guess Type is READ.
  Energy threshold   = 1.00e-06
  Density threshold  = 1.00e-06
  Integral threshold = 0.00e+00

  ==> Primary Basis <==

  Basis Set: CC-PVDZ
    Blend: CC-PVDZ
    Number of shells: 12
    Number of basis function: 24
    Number of Cartesian functions: 25
    Spherical Harmonics?: true
    Max angular momentum: 2

  ==> DFT Potential <==

   => Composite Functional: WB97 <= 

    WB97 GGA Exchange-Correlation Functional

    J.-D. Chai and M. Head-Gordon, J. Chem. Phys. 128, 084106 (2008)

    Deriv               =              1
    GGA                 =           TRUE
    Meta                =          FALSE

    Exchange Hybrid     =          FALSE
    MP2 Hybrid          =          FALSE

   => Exchange-Correlation Functionals <=

    1.0000   wB97 range-separated functional

   => Exact (HF) Exchange <=

    1.0000            HF,LR [omega = 0.0500]

   => Molecular Quadrature <=

    Radial Scheme       =       TREUTLER
    Pruning Scheme      =           FLAT
    Nuclear Scheme      =       TREUTLER

    BS radius alpha     =              1
    Pruning alpha       =              1
    Radial Points       =             75
    Spherical Points    =            302
    Total Points        =          66427
    Total Blocks        =            634
    Max Points          =            200
    Max Functions       =             24

   => Loading Basis Set <=

    Name: (CC-PVDZ AUX)
    Role: JKFIT
    Keyword: DF_BASIS_SCF
    atoms 1   entry O          line   221 file /home/psilocaluser/gits/hrw-dgas/objdir1/stage/usr/local/psi4/share/psi4/basis/cc-pvdz-jkfit.gbs 
    atoms 2-3 entry H          line    51 file /home/psilocaluser/gits/hrw-dgas/objdir1/stage/usr/local/psi4/share/psi4/basis/cc-pvdz-jkfit.gbs 

  Reading orbitals from file 180, no projection.

  ==> Pre-Iterations <==

   -------------------------------------------------------
    Irrep   Nso     Nmo     Nalpha   Nbeta   Ndocc  Nsocc
   -------------------------------------------------------
     A         24      24       5       4       4       1
   -------------------------------------------------------
    Total      24      24       5       4       4       1
   -------------------------------------------------------

  ==> Integral Setup <==

  ==> DFJK: Density-Fitted J/K Matrices <==

    J tasked:                  Yes
    K tasked:                   No
    wK tasked:                 Yes
    Omega:               5.000E-02
    OpenMP threads:              1
    Integrals threads:           1
    Memory (MB):               375
    Algorithm:                Core
    Integral Cache:           LOAD
    Schwarz Cutoff:          1E-12
    Fitting Condition:       1E-12

   => Auxiliary Basis Set <=

  Basis Set: (CC-PVDZ AUX)
    Blend: CC-PVDZ-JKFIT
    Number of shells: 42
    Number of basis function: 116
    Number of Cartesian functions: 131
    Spherical Harmonics?: true
    Max angular momentum: 3

  Minimum eigenvalue in the overlap matrix is 3.7382439507E-02.
  Using Symmetric Orthogonalization.

  SCF Guess: Orbitals guess was supplied from a previous computation.

  ==> Iterations <==

                           Total Energy        Delta E     RMS |[F,P]|

   @DF-UKS iter   0:   -75.94388246323996   -7.59439e+01   1.99115e-02 
   @DF-UKS iter   1:   -75.93178085634221    1.21016e-02   2.26724e-02 
   @DF-UKS iter   2:   -75.88498432463788    4.67965e-02   2.65231e-02 DIIS
   @DF-UKS iter   3:   -76.04517007902245   -1.60186e-01   5.75583e-04 DIIS
   @DF-UKS iter   4:   -76.04526689323848   -9.68142e-05   7.99657e-05 DIIS
   @DF-UKS iter   5:   -76.04526888144454   -1.98821e-06   2.04703e-05 DIIS
   @DF-UKS iter   6:   -76.04526909261159   -2.11167e-07   3.60153e-06 DIIS
   @DF-UKS iter   7:   -76.04526910177852   -9.16692e-09   3.96063e-07 DIIS

  ==> Post-Iterations <==

   @Spin Contamination Metric:   3.126133602E-03
   @S^2 Expected:                7.500000000E-01
   @S^2 Observed:                7.531261336E-01
   @S   Expected:                5.000000000E-01
   @S   Observed:                5.000000000E-01

    Orbital Energies (a.u.)
    -----------------------

    Alpha Occupied:                                                       

       1A    -19.377869     2A     -1.445115     3A     -0.944149  
       4A     -0.815517     5A     -0.811531  

    Alpha Virtual:                                                        

       6A     -0.265079     7A     -0.197486     8A      0.172195  
       9A      0.195537    10A      0.466750    11A      0.493321  
      12A      0.614827    13A      0.791287    14A      0.802231  
      15A      0.999208    16A      1.132766    17A      1.234900  
      18A      1.588007    19A      1.595712    20A      2.289028  
      21A      2.325780    22A      2.530913    23A      2.861726  
      24A      3.169269  

    Beta Occupied:                                                        

       1A    -19.367111     2A     -1.380383     3A     -0.920668  
       4A     -0.785134  

    Beta Virtual:                                                         

       5A     -0.605115     6A     -0.252419     7A     -0.189368  
       8A      0.169732     9A      0.202708    10A      0.503702  
      11A      0.554407    12A      0.623986    13A      0.801142  
      14A      0.808231    15A      1.011642    16A      1.173984  
      17A      1.228071    18A      1.595385    19A      1.637483  
      20A      2.369165    21A      2.407276    22A      2.557270  
      23A      2.942438    24A      3.185012  

    Final Occupation by Irrep:
              A 
    DOCC [     4 ]
    SOCC [     1 ]

  Energy converged.

  @DF-UKS Final Energy:   -76.04526910177852

   => Energetics <=

    Nuclear Repulsion Energy =              8.8014655299720665
    One-Electron Energy =                -117.4807168191772462
    Two-Electron Energy =                  41.4141782163789145
    DFT Exchange-Correlation Energy =      -8.7801960289522452
    Empirical Dispersion Energy =           0.0000000000000000
    VV10 Nonlocal Energy =                  0.0000000000000000
    Total Energy =                        -76.0452691017785156


  UHF NO Occupations:
  HONO-2 :    3  A 1.9994823
  HONO-1 :    4  A 1.9992030
  HONO-0 :    5  A 1.0000000
  LUNO+0 :    6  A 0.0007970
  LUNO+1 :    7  A 0.0005177
  LUNO+2 :    8  A 0.0002486
  LUNO+3 :    9  A 0.0000002



Properties will be evaluated at   0.000000,   0.000000,   0.000000 Bohr

Properties computed using the SCF density matrix

  Nuclear Dipole Moment: (a.u.)
     X:     0.0000      Y:     0.0000      Z:     1.0191

  Electronic Dipole Moment: (a.u.)
     X:     0.0000      Y:    -0.0000      Z:    -0.0815

  Dipole Moment: (a.u.)
     X:     0.0000      Y:    -0.0000      Z:     0.9376     Total:     0.9376

  Dipole Moment: (Debye)
     X:     0.0000      Y:    -0.0000      Z:     2.3832     Total:     2.3832


*** tstop() called on psinet at Thu Sep 21 02:50:31 2017
Module time:
	user time   =       1.96 seconds =       0.03 minutes
	system time =       0.00 seconds =       0.00 minutes
	total time  =          2 seconds =       0.03 minutes
Total time:
	user time   =      10.35 seconds =       0.17 minutes
	system time =       0.04 seconds =       0.00 minutes
	total time  =         10 seconds =       0.17 minutes

*** tstart() called on psinet
*** at Thu Sep 21 02:50:31 2017

   => Loading Basis Set <=

    Name: CC-PVDZ
    Role: ORBITAL
    Keyword: BASIS
    atoms 1   entry O          line   198 file /home/psilocaluser/gits/hrw-dgas/objdir1/stage/usr/local/psi4/share/psi4/basis/cc-pvdz.gbs 
    atoms 2-3 entry H          line    22 file /home/psilocaluser/gits/hrw-dgas/objdir1/stage/usr/local/psi4/share/psi4/basis/cc-pvdz.gbs 


         ---------------------------------------------------------
                IP Fitting SCF: Neutral, Omega =   1.731E+00       
         ---------------------------------------------------------
                                   SCF
            by Justin Turney, Rob Parrish, Andy Simmonett
                             and Daniel Smith
                              UKS Reference
                        1 Threads,    500 MiB Core
         ---------------------------------------------------------

  ==> Geometry <==

    Molecular point group: c1
    Full point group: C2v

    Geometry (in Angstrom), charge = 0, multiplicity = 1:

       Center              X                  Y                   Z               Mass       
    ------------   -----------------  -----------------  -----------------  -----------------
           O          0.000000000000     0.000000000000    -0.068516219310    15.994914619560
           H          0.000000000000    -0.790689573744     0.543701060724     1.007825032070
           H          0.000000000000     0.790689573744     0.543701060724     1.007825032070

  Running in c1 symmetry.

  Rotational constants: A =     25.12555  B =     13.37733  C =      8.72955 [cm^-1]
  Rotational constants: A = 753245.06586  B = 401042.16407  C = 261705.25278 [MHz]
  Nuclear repulsion =    8.801465529972067

  Charge       = 0
  Multiplicity = 1
  Electrons    = 10
  Nalpha       = 5
  Nbeta        = 5

  ==> Algorithm <==

  SCF Algorithm Type is DF.
  DIIS enabled.
  MOM disabled.
  Fractional occupation disabled.
  Guess Type is READ.
  Energy threshold   = 1.00e-06
  Density threshold  = 1.00e-06
  Integral threshold = 0.00e+00

  ==> Primary Basis <==

  Basis Set: CC-PVDZ
    Blend: CC-PVDZ
    Number of shells: 12
    Number of basis function: 24
    Number of Cartesian functions: 25
    Spherical Harmonics?: true
    Max angular momentum: 2

  ==> DFT Potential <==

   => Composite Functional: WB97 <= 

    WB97 GGA Exchange-Correlation Functional

    J.-D. Chai and M. Head-Gordon, J. Chem. Phys. 128, 084106 (2008)

    Deriv               =              1
    GGA                 =           TRUE
    Meta                =          FALSE

    Exchange Hybrid     =          FALSE
    MP2 Hybrid          =          FALSE

   => Exchange-Correlation Functionals <=

    1.0000   wB97 range-separated functional

   => Exact (HF) Exchange <=

    1.0000            HF,LR [omega = 1.7307]

   => Molecular Quadrature <=

    Radial Scheme       =       TREUTLER
    Pruning Scheme      =           FLAT
    Nuclear Scheme      =       TREUTLER

    BS radius alpha     =              1
    Pruning alpha       =              1
    Radial Points       =             75
    Spherical Points    =            302
    Total Points        =          66427
    Total Blocks        =            634
    Max Points          =            200
    Max Functions       =             24

   => Loading Basis Set <=

    Name: (CC-PVDZ AUX)
    Role: JKFIT
    Keyword: DF_BASIS_SCF
    atoms 1   entry O          line   221 file /home/psilocaluser/gits/hrw-dgas/objdir1/stage/usr/local/psi4/share/psi4/basis/cc-pvdz-jkfit.gbs 
    atoms 2-3 entry H          line    51 file /home/psilocaluser/gits/hrw-dgas/objdir1/stage/usr/local/psi4/share/psi4/basis/cc-pvdz-jkfit.gbs 

  Reading orbitals from file 180, no projection.

  ==> Pre-Iterations <==

   -------------------------------------------------------
    Irrep   Nso     Nmo     Nalpha   Nbeta   Ndocc  Nsocc
   -------------------------------------------------------
     A         24      24       5       5       5       0
   -------------------------------------------------------
    Total      24      24       5       5       5       0
   -------------------------------------------------------

  ==> Integral Setup <==

    Rebuilding (Q|w|mn) Integrals (new omega)

  ==> DFJK: Density-Fitted J/K Matrices <==

    J tasked:                  Yes
    K tasked:                   No
    wK tasked:                 Yes
    Omega:               1.731E+00
    OpenMP threads:              1
    Integrals threads:           1
    Memory (MB):               375
    Algorithm:                Core
    Integral Cache:           LOAD
    Schwarz Cutoff:          1E-12
    Fitting Condition:       1E-12

   => Auxiliary Basis Set <=

  Basis Set: (CC-PVDZ AUX)
    Blend: CC-PVDZ-JKFIT
    Number of shells: 42
    Number of basis function: 116
    Number of Cartesian functions: 131
    Spherical Harmonics?: true
    Max angular momentum: 3

  Minimum eigenvalue in the overlap matrix is 3.7382439507E-02.
  Using Symmetric Orthogonalization.

  SCF Guess: Orbitals guess was supplied from a previous computation.

  ==> Iterations <==

                           Total Energy        Delta E     RMS |[F,P]|

   @DF-UKS iter   0:   -75.91477196596215   -7.59148e+01   4.17556e-03 
   @DF-UKS iter   1:   -76.26847240991070   -3.53700e-01   1.77205e-02 
   @DF-UKS iter   2:   -76.32980425531809   -6.13318e-02   1.08050e-02 DIIS
   @DF-UKS iter   3:   -76.35443423497546   -2.46300e-02   1.84820e-03 DIIS
   @DF-UKS iter   4:   -76.35655593059039   -2.12170e-03   3.51410e-04 DIIS
   @DF-UKS iter   5:   -76.35662911662672   -7.31860e-05   1.35506e-04 DIIS
   @DF-UKS iter   6:   -76.35664425889802   -1.51423e-05   5.27994e-05 DIIS
   @DF-UKS iter   7:   -76.35664743101916   -3.17212e-06   1.29068e-05 DIIS
   @DF-UKS iter   8:   -76.35664762097718   -1.89958e-07   2.70590e-06 DIIS
   @DF-UKS iter   9:   -76.35664762810279   -7.12561e-09   5.86654e-07 DIIS

  ==> Post-Iterations <==

   @Spin Contamination Metric:   6.948219777E-11
   @S^2 Expected:                0.000000000E+00
   @S^2 Observed:                6.948219777E-11
   @S   Expected:                0.000000000E+00
   @S   Observed:                0.000000000E+00

    Orbital Energies (a.u.)
    -----------------------

    Alpha Occupied:                                                       

       1A    -19.625737     2A     -1.335621     3A     -0.710850  
       4A     -0.589380     5A     -0.518850  

    Alpha Virtual:                                                        

       6A      0.168785     7A      0.244536     8A      0.734848  
       9A      0.791676    10A      1.122291    11A      1.151998  
      12A      1.214794    13A      1.419907    14A      1.433164  
      15A      1.634944    16A      1.847571    17A      1.855826  
      18A      2.301158    19A      2.337901    20A      3.195732  
      21A      3.243166    22A      3.395237    23A      3.761620  
      24A      4.039959  

    Beta Occupied:                                                        

       1A    -19.625737     2A     -1.335620     3A     -0.710852  
       4A     -0.589377     5A     -0.518849  

    Beta Virtual:                                                         

       6A      0.168786     7A      0.244535     8A      0.734847  
       9A      0.791677    10A      1.122293    11A      1.151999  
      12A      1.214793    13A      1.419907    14A      1.433165  
      15A      1.634945    16A      1.847571    17A      1.855827  
      18A      2.301158    19A      2.337901    20A      3.195733  
      21A      3.243166    22A      3.395238    23A      3.761620  
      24A      4.039959  

    Final Occupation by Irrep:
              A 
    DOCC [     5 ]
    SOCC [     0 ]

  Energy converged.

  @DF-UKS Final Energy:   -76.35664762810279

   => Energetics <=

    Nuclear Repulsion Energy =              8.8014655299720665
    One-Electron Energy =                -122.6076993777155622
    Two-Electron Energy =                  41.5139980246307942
    DFT Exchange-Correlation Energy =      -4.0644118049900930
    Empirical Dispersion Energy =           0.0000000000000000
    VV10 Nonlocal Energy =                  0.0000000000000000
    Total Energy =                        -76.3566476281027917


  UHF NO Occupations:
  HONO-2 :    3  A 2.0000000
  HONO-1 :    4  A 2.0000000
  HONO-0 :    5  A 2.0000000
  LUNO+0 :    6  A 0.0000000
  LUNO+1 :    7  A 0.0000000
  LUNO+2 :    8  A 0.0000000
  LUNO+3 :    9  A 0.0000000



Properties will be evaluated at   0.000000,   0.000000,   0.000000 Bohr

Properties computed using the SCF density matrix

  Nuclear Dipole Moment: (a.u.)
     X:     0.0000      Y:     0.0000      Z:     1.0191

  Electronic Dipole Moment: (a.u.)
     X:    -0.0000      Y:    -0.0000      Z:    -0.1691

  Dipole Moment: (a.u.)
     X:    -0.0000      Y:    -0.0000      Z:     0.8500     Total:     0.8500

  Dipole Moment: (Debye)
     X:    -0.0000      Y:    -0.0000      Z:     2.1605     Total:     2.1605


*** tstop() called on psinet at Thu Sep 21 02:50:33 2017
Module time:
	user time   =       2.40 seconds =       0.04 minutes
	system time =       0.02 seconds =       0.00 minutes
	total time  =          2 seconds =       0.03 minutes
Total time:
	user time   =      12.76 seconds =       0.21 minutes
	system time =       0.06 seconds =       0.00 minutes
	total time  =         12 seconds =       0.20 minutes

*** tstart() called on psinet
*** at Thu Sep 21 02:50:33 2017

   => Loading Basis Set <=

    Name: CC-PVDZ
    Role: ORBITAL
    Keyword: BASIS
    atoms 1   entry O          line   198 file /home/psilocaluser/gits/hrw-dgas/objdir1/stage/usr/local/psi4/share/psi4/basis/cc-pvdz.gbs 
    atoms 2-3 entry H          line    22 file /home/psilocaluser/gits/hrw-dgas/objdir1/stage/usr/local/psi4/share/psi4/basis/cc-pvdz.gbs 


         ---------------------------------------------------------
                IP Fitting SCF: Cation, Omega =   1.731E+00        
         ---------------------------------------------------------
                                   SCF
            by Justin Turney, Rob Parrish, Andy Simmonett
                             and Daniel Smith
                              UKS Reference
                        1 Threads,    500 MiB Core
         ---------------------------------------------------------

  ==> Geometry <==

    Molecular point group: c1
    Full point group: C2v

    Geometry (in Angstrom), charge = 1, multiplicity = 2:

       Center              X                  Y                   Z               Mass       
    ------------   -----------------  -----------------  -----------------  -----------------
           O          0.000000000000     0.000000000000    -0.068516219310    15.994914619560
           H          0.000000000000    -0.790689573744     0.543701060724     1.007825032070
           H          0.000000000000     0.790689573744     0.543701060724     1.007825032070

  Running in c1 symmetry.

  Rotational constants: A =     25.12555  B =     13.37733  C =      8.72955 [cm^-1]
  Rotational constants: A = 753245.06586  B = 401042.16407  C = 261705.25278 [MHz]
  Nuclear repulsion =    8.801465529972067

  Charge       = 1
  Multiplicity = 2
  Electrons    = 9
  Nalpha       = 5
  Nbeta        = 4

  ==> Algorithm <==

  SCF Algorithm Type is DF.
  DIIS enabled.
  MOM disabled.
  Fractional occupation disabled.
  Guess Type is READ.
  Energy threshold   = 1.00e-06
  Density threshold  = 1.00e-06
  Integral threshold = 0.00e+00

  ==> Primary Basis <==

  Basis Set: CC-PVDZ
    Blend: CC-PVDZ
    Number of shells: 12
    Number of basis function: 24
    Number of Cartesian functions: 25
    Spherical Harmonics?: true
    Max angular momentum: 2

  ==> DFT Potential <==

   => Composite Functional: WB97 <= 

    WB97 GGA Exchange-Correlation Functional

    J.-D. Chai and M. Head-Gordon, J. Chem. Phys. 128, 084106 (2008)

    Deriv               =              1
    GGA                 =           TRUE
    Meta                =          FALSE

    Exchange Hybrid     =          FALSE
    MP2 Hybrid          =          FALSE

   => Exchange-Correlation Functionals <=

    1.0000   wB97 range-separated functional

   => Exact (HF) Exchange <=

    1.0000            HF,LR [omega = 1.7307]

   => Molecular Quadrature <=

    Radial Scheme       =       TREUTLER
    Pruning Scheme      =           FLAT
    Nuclear Scheme      =       TREUTLER

    BS radius alpha     =              1
    Pruning alpha       =              1
    Radial Points       =             75
    Spherical Points    =            302
    Total Points        =          66427
    Total Blocks        =            634
    Max Points          =            200
    Max Functions       =             24

   => Loading Basis Set <=

    Name: (CC-PVDZ AUX)
    Role: JKFIT
    Keyword: DF_BASIS_SCF
    atoms 1   entry O          line   221 file /home/psilocaluser/gits/hrw-dgas/objdir1/stage/usr/local/psi4/share/psi4/basis/cc-pvdz-jkfit.gbs 
    atoms 2-3 entry H          line    51 file /home/psilocaluser/gits/hrw-dgas/objdir1/stage/usr/local/psi4/share/psi4/basis/cc-pvdz-jkfit.gbs 

  Reading orbitals from file 180, no projection.

  ==> Pre-Iterations <==

   -------------------------------------------------------
    Irrep   Nso     Nmo     Nalpha   Nbeta   Ndocc  Nsocc
   -------------------------------------------------------
     A         24      24       5       4       4       1
   -------------------------------------------------------
    Total      24      24       5       4       4       1
   -------------------------------------------------------

  ==> Integral Setup <==

  ==> DFJK: Density-Fitted J/K Matrices <==

    J tasked:                  Yes
    K tasked:                   No
    wK tasked:                 Yes
    Omega:               1.731E+00
    OpenMP threads:              1
    Integrals threads:           1
    Memory (MB):               375
    Algorithm:                Core
    Integral Cache:           LOAD
    Schwarz Cutoff:          1E-12
    Fitting Condition:       1E-12

   => Auxiliary Basis Set <=

  Basis Set: (CC-PVDZ AUX)
    Blend: CC-PVDZ-JKFIT
    Number of shells: 42
    Number of basis function: 116
    Number of Cartesian functions: 131
    Spherical Harmonics?: true
    Max angular momentum: 3

  Minimum eigenvalue in the overlap matrix is 3.7382439507E-02.
  Using Symmetric Orthogonalization.

  SCF Guess: Orbitals guess was supplied from a previous computation.

  ==> Iterations <==

                           Total Energy        Delta E     RMS |[F,P]|

   @DF-UKS iter   0:   -75.81918514798018   -7.58192e+01   1.98860e-02 
   @DF-UKS iter   1:   -75.90234783881692   -8.31627e-02   9.35634e-03 
   @DF-UKS iter   2:   -75.91676271964154   -1.44149e-02   3.73638e-03 DIIS
   @DF-UKS iter   3:   -75.91986277520358   -3.10006e-03   3.53726e-04 DIIS
   @DF-UKS iter   4:   -75.91993694012893   -7.41649e-05   1.16512e-04 DIIS
   @DF-UKS iter   5:   -75.91994817205314   -1.12319e-05   2.53592e-05 DIIS
   @DF-UKS iter   6:   -75.91994876354437   -5.91491e-07   3.86200e-06 DIIS
   @DF-UKS iter   7:   -75.91994877573079   -1.21864e-08   7.36425e-07 DIIS

  ==> Post-Iterations <==

   @Spin Contamination Metric:   4.748001867E-03
   @S^2 Expected:                7.500000000E-01
   @S^2 Observed:                7.547480019E-01
   @S   Expected:                5.000000000E-01
   @S   Observed:                5.000000000E-01

    Orbital Energies (a.u.)
    -----------------------

    Alpha Occupied:                                                       

       1A    -20.194073     2A     -1.897369     3A     -1.220441  
       4A     -1.131039     5A     -1.109957  

    Alpha Virtual:                                                        

       6A     -0.158346     7A     -0.076719     8A      0.352804  
       9A      0.395980    10A      0.654794    11A      0.681445  
      12A      0.795543    13A      1.004061    14A      1.005235  
      15A      1.210705    16A      1.379669    17A      1.454795  
      18A      1.856570    19A      1.869267    20A      2.645783  
      21A      2.690632    22A      2.895413    23A      3.235125  
      24A      3.555185  

    Beta Occupied:                                                        

       1A    -20.174929     2A     -1.760011     3A     -1.187211  
       4A     -1.066315  

    Beta Virtual:                                                         

       5A     -0.373791     6A     -0.142219     7A     -0.067916  
       8A      0.352686     9A      0.412004    10A      0.693433  
      11A      0.790841    12A      0.802383    13A      1.014747  
      14A      1.026439    15A      1.228634    16A      1.375256  
      17A      1.454686    18A      1.869654    19A      1.915342  
      20A      2.743328    21A      2.790585    22A      2.926914  
      23A      3.315846    24A      3.574173  

    Final Occupation by Irrep:
              A 
    DOCC [     4 ]
    SOCC [     1 ]

  Energy converged.

  @DF-UKS Final Energy:   -75.91994877573079

   => Energetics <=

    Nuclear Repulsion Energy =              8.8014655299720665
    One-Electron Energy =                -117.5844387152868791
    Two-Electron Energy =                  36.8685788836276771
    DFT Exchange-Correlation Energy =      -4.0055544740436506
    Empirical Dispersion Energy =           0.0000000000000000
    VV10 Nonlocal Energy =                  0.0000000000000000
    Total Energy =                        -75.9199487757307878


  UHF NO Occupations:
  HONO-2 :    3  A 1.9993745
  HONO-1 :    4  A 1.9985128
  HONO-0 :    5  A 1.0000000
  LUNO+0 :    6  A 0.0014872
  LUNO+1 :    7  A 0.0006255
  LUNO+2 :    8  A 0.0002626
  LUNO+3 :    9  A 0.0000001



Properties will be evaluated at   0.000000,   0.000000,   0.000000 Bohr

Properties computed using the SCF density matrix

  Nuclear Dipole Moment: (a.u.)
     X:     0.0000      Y:     0.0000      Z:     1.0191

  Electronic Dipole Moment: (a.u.)
     X:     0.0000      Y:    -0.0000      Z:     0.0380

  Dipole Moment: (a.u.)
     X:     0.0000      Y:    -0.0000      Z:     1.0570     Total:     1.0570

  Dipole Moment: (Debye)
     X:     0.0000      Y:    -0.0000      Z:     2.6867     Total:     2.6867


*** tstop() called on psinet at Thu Sep 21 02:50:35 2017
Module time:
	user time   =       1.93 seconds =       0.03 minutes
	system time =       0.00 seconds =       0.00 minutes
	total time  =          2 seconds =       0.03 minutes
Total time:
	user time   =      14.69 seconds =       0.24 minutes
	system time =       0.06 seconds =       0.00 minutes
	total time  =         14 seconds =       0.23 minutes

*** tstart() called on psinet
*** at Thu Sep 21 02:50:35 2017

   => Loading Basis Set <=

    Name: CC-PVDZ
    Role: ORBITAL
    Keyword: BASIS
    atoms 1   entry O          line   198 file /home/psilocaluser/gits/hrw-dgas/objdir1/stage/usr/local/psi4/share/psi4/basis/cc-pvdz.gbs 
    atoms 2-3 entry H          line    22 file /home/psilocaluser/gits/hrw-dgas/objdir1/stage/usr/local/psi4/share/psi4/basis/cc-pvdz.gbs 


         ---------------------------------------------------------
                IP Fitting SCF: Neutral, Omega =   1.224E+00       
         ---------------------------------------------------------
                                   SCF
            by Justin Turney, Rob Parrish, Andy Simmonett
                             and Daniel Smith
                              UKS Reference
                        1 Threads,    500 MiB Core
         ---------------------------------------------------------

  ==> Geometry <==

    Molecular point group: c1
    Full point group: C2v

    Geometry (in Angstrom), charge = 0, multiplicity = 1:

       Center              X                  Y                   Z               Mass       
    ------------   -----------------  -----------------  -----------------  -----------------
           O          0.000000000000     0.000000000000    -0.068516219310    15.994914619560
           H          0.000000000000    -0.790689573744     0.543701060724     1.007825032070
           H          0.000000000000     0.790689573744     0.543701060724     1.007825032070

  Running in c1 symmetry.

  Rotational constants: A =     25.12555  B =     13.37733  C =      8.72955 [cm^-1]
  Rotational constants: A = 753245.06586  B = 401042.16407  C = 261705.25278 [MHz]
  Nuclear repulsion =    8.801465529972067

  Charge       = 0
  Multiplicity = 1
  Electrons    = 10
  Nalpha       = 5
  Nbeta        = 5

  ==> Algorithm <==

  SCF Algorithm Type is DF.
  DIIS enabled.
  MOM disabled.
  Fractional occupation disabled.
  Guess Type is READ.
  Energy threshold   = 1.00e-06
  Density threshold  = 1.00e-06
  Integral threshold = 0.00e+00

  ==> Primary Basis <==

  Basis Set: CC-PVDZ
    Blend: CC-PVDZ
    Number of shells: 12
    Number of basis function: 24
    Number of Cartesian functions: 25
    Spherical Harmonics?: true
    Max angular momentum: 2

  ==> DFT Potential <==

   => Composite Functional: WB97 <= 

    WB97 GGA Exchange-Correlation Functional

    J.-D. Chai and M. Head-Gordon, J. Chem. Phys. 128, 084106 (2008)

    Deriv               =              1
    GGA                 =           TRUE
    Meta                =          FALSE

    Exchange Hybrid     =          FALSE
    MP2 Hybrid          =          FALSE

   => Exchange-Correlation Functionals <=

    1.0000   wB97 range-separated functional

   => Exact (HF) Exchange <=

    1.0000            HF,LR [omega = 1.2240]

   => Molecular Quadrature <=

    Radial Scheme       =       TREUTLER
    Pruning Scheme      =           FLAT
    Nuclear Scheme      =       TREUTLER

    BS radius alpha     =              1
    Pruning alpha       =              1
    Radial Points       =             75
    Spherical Points    =            302
    Total Points        =          66427
    Total Blocks        =            634
    Max Points          =            200
    Max Functions       =             24

   => Loading Basis Set <=

    Name: (CC-PVDZ AUX)
    Role: JKFIT
    Keyword: DF_BASIS_SCF
    atoms 1   entry O          line   221 file /home/psilocaluser/gits/hrw-dgas/objdir1/stage/usr/local/psi4/share/psi4/basis/cc-pvdz-jkfit.gbs 
    atoms 2-3 entry H          line    51 file /home/psilocaluser/gits/hrw-dgas/objdir1/stage/usr/local/psi4/share/psi4/basis/cc-pvdz-jkfit.gbs 

  Reading orbitals from file 180, no projection.

  ==> Pre-Iterations <==

   -------------------------------------------------------
    Irrep   Nso     Nmo     Nalpha   Nbeta   Ndocc  Nsocc
   -------------------------------------------------------
     A         24      24       5       5       5       0
   -------------------------------------------------------
    Total      24      24       5       5       5       0
   -------------------------------------------------------

  ==> Integral Setup <==

    Rebuilding (Q|w|mn) Integrals (new omega)

  ==> DFJK: Density-Fitted J/K Matrices <==

    J tasked:                  Yes
    K tasked:                   No
    wK tasked:                 Yes
    Omega:               1.224E+00
    OpenMP threads:              1
    Integrals threads:           1
    Memory (MB):               375
    Algorithm:                Core
    Integral Cache:           LOAD
    Schwarz Cutoff:          1E-12
    Fitting Condition:       1E-12

   => Auxiliary Basis Set <=

  Basis Set: (CC-PVDZ AUX)
    Blend: CC-PVDZ-JKFIT
    Number of shells: 42
    Number of basis function: 116
    Number of Cartesian functions: 131
    Spherical Harmonics?: true
    Max angular momentum: 3

  Minimum eigenvalue in the overlap matrix is 3.7382439507E-02.
  Using Symmetric Orthogonalization.

  SCF Guess: Orbitals guess was supplied from a previous computation.

  ==> Iterations <==

                           Total Energy        Delta E     RMS |[F,P]|

   @DF-UKS iter   0:   -75.93398483402791   -7.59340e+01   6.30626e-04 
   @DF-UKS iter   1:   -76.28815940750550   -3.54175e-01   1.73994e-02 
   @DF-UKS iter   2:   -76.34557889183864   -5.74195e-02   1.13252e-02 DIIS
   @DF-UKS iter   3:   -76.37194952805055   -2.63706e-02   1.74153e-03 DIIS
   @DF-UKS iter   4:   -76.37384878041985   -1.89925e-03   3.30387e-04 DIIS
   @DF-UKS iter   5:   -76.37391361289261   -6.48325e-05   1.28214e-04 DIIS
   @DF-UKS iter   6:   -76.37392722352205   -1.36106e-05   4.86262e-05 DIIS
   @DF-UKS iter   7:   -76.37392989862892   -2.67511e-06   1.09727e-05 DIIS
   @DF-UKS iter   8:   -76.37393003535850   -1.36730e-07   2.47270e-06 DIIS
   @DF-UKS iter   9:   -76.37393004156331   -6.20481e-09   4.89869e-07 DIIS

  ==> Post-Iterations <==

   @Spin Contamination Metric:   4.460520842E-11
   @S^2 Expected:                0.000000000E+00
   @S^2 Observed:                4.460520842E-11
   @S   Expected:                0.000000000E+00
   @S   Observed:                0.000000000E+00

    Orbital Energies (a.u.)
    -----------------------

    Alpha Occupied:                                                       

       1A    -19.391114     2A     -1.309702     3A     -0.704468  
       4A     -0.579983     5A     -0.508784  

    Alpha Virtual:                                                        

       6A      0.169103     7A      0.243966     8A      0.727925  
       9A      0.783958    10A      1.112243    11A      1.139537  
      12A      1.203433    13A      1.413601    14A      1.427320  
      15A      1.628585    16A      1.835182    17A      1.848504  
      18A      2.283102    19A      2.319907    20A      3.171677  
      21A      3.217982    22A      3.369025    23A      3.731004  
      24A      4.005913  

    Beta Occupied:                                                        

       1A    -19.391114     2A     -1.309702     3A     -0.704470  
       4A     -0.579981     5A     -0.508783  

    Beta Virtual:                                                         

       6A      0.169104     7A      0.243965     8A      0.727925  
       9A      0.783959    10A      1.112244    11A      1.139538  
      12A      1.203432    13A      1.413601    14A      1.427321  
      15A      1.628585    16A      1.835182    17A      1.848504  
      18A      2.283101    19A      2.319907    20A      3.171678  
      21A      3.217982    22A      3.369026    23A      3.731004  
      24A      4.005913  

    Final Occupation by Irrep:
              A 
    DOCC [     5 ]
    SOCC [     0 ]

  Energy converged.

  @DF-UKS Final Energy:   -76.37393004156331

   => Energetics <=

    Nuclear Repulsion Energy =              8.8014655299720665
    One-Electron Energy =                -122.6190941310398586
    Two-Electron Energy =                  42.3377045418166844
    DFT Exchange-Correlation Energy =      -4.8940059823121880
    Empirical Dispersion Energy =           0.0000000000000000
    VV10 Nonlocal Energy =                  0.0000000000000000
    Total Energy =                        -76.3739300415633124


  UHF NO Occupations:
  HONO-2 :    3  A 2.0000000
  HONO-1 :    4  A 2.0000000
  HONO-0 :    5  A 2.0000000
  LUNO+0 :    6  A 0.0000000
  LUNO+1 :    7  A 0.0000000
  LUNO+2 :    8  A 0.0000000
  LUNO+3 :    9  A 0.0000000



Properties will be evaluated at   0.000000,   0.000000,   0.000000 Bohr

Properties computed using the SCF density matrix

  Nuclear Dipole Moment: (a.u.)
     X:     0.0000      Y:     0.0000      Z:     1.0191

  Electronic Dipole Moment: (a.u.)
     X:    -0.0000      Y:    -0.0000      Z:    -0.1731

  Dipole Moment: (a.u.)
     X:    -0.0000      Y:    -0.0000      Z:     0.8460     Total:     0.8460

  Dipole Moment: (Debye)
     X:    -0.0000      Y:    -0.0000      Z:     2.1502     Total:     2.1502


*** tstop() called on psinet at Thu Sep 21 02:50:38 2017
Module time:
	user time   =       2.42 seconds =       0.04 minutes
	system time =       0.01 seconds =       0.00 minutes
	total time  =          3 seconds =       0.05 minutes
Total time:
	user time   =      17.12 seconds =       0.29 minutes
	system time =       0.07 seconds =       0.00 minutes
	total time  =         17 seconds =       0.28 minutes

*** tstart() called on psinet
*** at Thu Sep 21 02:50:38 2017

   => Loading Basis Set <=

    Name: CC-PVDZ
    Role: ORBITAL
    Keyword: BASIS
    atoms 1   entry O          line   198 file /home/psilocaluser/gits/hrw-dgas/objdir1/stage/usr/local/psi4/share/psi4/basis/cc-pvdz.gbs 
    atoms 2-3 entry H          line    22 file /home/psilocaluser/gits/hrw-dgas/objdir1/stage/usr/local/psi4/share/psi4/basis/cc-pvdz.gbs 


         ---------------------------------------------------------
                IP Fitting SCF: Cation, Omega =   1.224E+00        
         ---------------------------------------------------------
                                   SCF
            by Justin Turney, Rob Parrish, Andy Simmonett
                             and Daniel Smith
                              UKS Reference
                        1 Threads,    500 MiB Core
         ---------------------------------------------------------

  ==> Geometry <==

    Molecular point group: c1
    Full point group: C2v

    Geometry (in Angstrom), charge = 1, multiplicity = 2:

       Center              X                  Y                   Z               Mass       
    ------------   -----------------  -----------------  -----------------  -----------------
           O          0.000000000000     0.000000000000    -0.068516219310    15.994914619560
           H          0.000000000000    -0.790689573744     0.543701060724     1.007825032070
           H          0.000000000000     0.790689573744     0.543701060724     1.007825032070

  Running in c1 symmetry.

  Rotational constants: A =     25.12555  B =     13.37733  C =      8.72955 [cm^-1]
  Rotational constants: A = 753245.06586  B = 401042.16407  C = 261705.25278 [MHz]
  Nuclear repulsion =    8.801465529972067

  Charge       = 1
  Multiplicity = 2
  Electrons    = 9
  Nalpha       = 5
  Nbeta        = 4

  ==> Algorithm <==

  SCF Algorithm Type is DF.
  DIIS enabled.
  MOM disabled.
  Fractional occupation disabled.
  Guess Type is READ.
  Energy threshold   = 1.00e-06
  Density threshold  = 1.00e-06
  Integral threshold = 0.00e+00

  ==> Primary Basis <==

  Basis Set: CC-PVDZ
    Blend: CC-PVDZ
    Number of shells: 12
    Number of basis function: 24
    Number of Cartesian functions: 25
    Spherical Harmonics?: true
    Max angular momentum: 2

  ==> DFT Potential <==

   => Composite Functional: WB97 <= 

    WB97 GGA Exchange-Correlation Functional

    J.-D. Chai and M. Head-Gordon, J. Chem. Phys. 128, 084106 (2008)

    Deriv               =              1
    GGA                 =           TRUE
    Meta                =          FALSE

    Exchange Hybrid     =          FALSE
    MP2 Hybrid          =          FALSE

   => Exchange-Correlation Functionals <=

    1.0000   wB97 range-separated functional

   => Exact (HF) Exchange <=

    1.0000            HF,LR [omega = 1.2240]

   => Molecular Quadrature <=

    Radial Scheme       =       TREUTLER
    Pruning Scheme      =           FLAT
    Nuclear Scheme      =       TREUTLER

    BS radius alpha     =              1
    Pruning alpha       =              1
    Radial Points       =             75
    Spherical Points    =            302
    Total Points        =          66427
[...]
                IP Fitting SCF: Neutral, Omega =   5.642E-01       
         ---------------------------------------------------------
                                   SCF
            by Justin Turney, Rob Parrish, Andy Simmonett
                             and Daniel Smith
                              UKS Reference
                        1 Threads,    500 MiB Core
         ---------------------------------------------------------

  ==> Geometry <==

    Molecular point group: c1
    Full point group: C2v

    Geometry (in Angstrom), charge = 0, multiplicity = 1:

       Center              X                  Y                   Z               Mass       
    ------------   -----------------  -----------------  -----------------  -----------------
           O          0.000000000000     0.000000000000    -0.068516219310    15.994914619560
           H          0.000000000000    -0.790689573744     0.543701060724     1.007825032070
           H          0.000000000000     0.790689573744     0.543701060724     1.007825032070

  Running in c1 symmetry.

  Rotational constants: A =     25.12555  B =     13.37733  C =      8.72955 [cm^-1]
  Rotational constants: A = 753245.06586  B = 401042.16407  C = 261705.25278 [MHz]
  Nuclear repulsion =    8.801465529972067

  Charge       = 0
  Multiplicity = 1
  Electrons    = 10
  Nalpha       = 5
  Nbeta        = 5

  ==> Algorithm <==

  SCF Algorithm Type is DF.
  DIIS enabled.
  MOM disabled.
  Fractional occupation disabled.
  Guess Type is READ.
  Energy threshold   = 1.00e-06
  Density threshold  = 1.00e-06
  Integral threshold = 0.00e+00

  ==> Primary Basis <==

  Basis Set: CC-PVDZ
    Blend: CC-PVDZ
    Number of shells: 12
    Number of basis function: 24
    Number of Cartesian functions: 25
    Spherical Harmonics?: true
    Max angular momentum: 2

  ==> DFT Potential <==

   => Composite Functional: WB97 <= 

    WB97 GGA Exchange-Correlation Functional

    J.-D. Chai and M. Head-Gordon, J. Chem. Phys. 128, 084106 (2008)

    Deriv               =              1
    GGA                 =           TRUE
    Meta                =          FALSE

    Exchange Hybrid     =          FALSE
    MP2 Hybrid          =          FALSE

   => Exchange-Correlation Functionals <=

    1.0000   wB97 range-separated functional

   => Exact (HF) Exchange <=

    1.0000            HF,LR [omega = 0.5642]

   => Molecular Quadrature <=

    Radial Scheme       =       TREUTLER
    Pruning Scheme      =           FLAT
    Nuclear Scheme      =       TREUTLER

    BS radius alpha     =              1
    Pruning alpha       =              1
    Radial Points       =             75
    Spherical Points    =            302
    Total Points        =          66427
    Total Blocks        =            634
    Max Points          =            200
    Max Functions       =             24

   => Loading Basis Set <=

    Name: (CC-PVDZ AUX)
    Role: JKFIT
    Keyword: DF_BASIS_SCF
    atoms 1   entry O          line   221 file /home/psilocaluser/gits/hrw-dgas/objdir1/stage/usr/local/psi4/share/psi4/basis/cc-pvdz-jkfit.gbs 
    atoms 2-3 entry H          line    51 file /home/psilocaluser/gits/hrw-dgas/objdir1/stage/usr/local/psi4/share/psi4/basis/cc-pvdz-jkfit.gbs 

  Reading orbitals from file 180, no projection.

  ==> Pre-Iterations <==

   -------------------------------------------------------
    Irrep   Nso     Nmo     Nalpha   Nbeta   Ndocc  Nsocc
   -------------------------------------------------------
     A         24      24       5       5       5       0
   -------------------------------------------------------
    Total      24      24       5       5       5       0
   -------------------------------------------------------

  ==> Integral Setup <==

    Rebuilding (Q|w|mn) Integrals (new omega)

  ==> DFJK: Density-Fitted J/K Matrices <==

    J tasked:                  Yes
    K tasked:                   No
    wK tasked:                 Yes
    Omega:               5.642E-01
    OpenMP threads:              1
    Integrals threads:           1
    Memory (MB):               375
    Algorithm:                Core
    Integral Cache:           LOAD
    Schwarz Cutoff:          1E-12
    Fitting Condition:       1E-12

   => Auxiliary Basis Set <=

  Basis Set: (CC-PVDZ AUX)
    Blend: CC-PVDZ-JKFIT
    Number of shells: 42
    Number of basis function: 116
    Number of Cartesian functions: 131
    Spherical Harmonics?: true
    Max angular momentum: 3

  Minimum eigenvalue in the overlap matrix is 3.7382439507E-02.
  Using Symmetric Orthogonalization.

  SCF Guess: Orbitals guess was supplied from a previous computation.

  ==> Iterations <==

                           Total Energy        Delta E     RMS |[F,P]|

   @DF-UKS iter   0:   -75.95887935505512   -7.59589e+01   9.20294e-08 
   @DF-UKS iter   1:   -76.31645895432176   -3.57580e-01   1.89894e-02 
   @DF-UKS iter   2:   -76.35372870769653   -3.72698e-02   1.61411e-02 DIIS
   @DF-UKS iter   3:   -76.40486285509547   -5.11341e-02   1.09995e-03 DIIS
   @DF-UKS iter   4:   -76.40561197182294   -7.49117e-04   2.41045e-04 DIIS
   @DF-UKS iter   5:   -76.40564704466445   -3.50728e-05   8.73384e-05 DIIS
   @DF-UKS iter   6:   -76.40565339649939   -6.35183e-06   2.71629e-05 DIIS
   @DF-UKS iter   7:   -76.40565420106432   -8.04565e-07   6.77050e-06 DIIS
   @DF-UKS iter   8:   -76.40565425739851   -5.63342e-08   1.25244e-06 DIIS
   @DF-UKS iter   9:   -76.40565425937943   -1.98092e-09   2.07061e-07 DIIS

  ==> Post-Iterations <==

   @Spin Contamination Metric:   4.153122291E-12
   @S^2 Expected:                0.000000000E+00
   @S^2 Observed:                4.153122291E-12
   @S   Expected:                0.000000000E+00
   @S   Observed:                0.000000000E+00

    Orbital Energies (a.u.)
    -----------------------

    Alpha Occupied:                                                       

       1A    -19.076314     2A     -1.179552     3A     -0.655740  
       4A     -0.521181     5A     -0.446775  

    Alpha Virtual:                                                        

       6A      0.162951     7A      0.237433     8A      0.686378  
       9A      0.737097    10A      1.062506    11A      1.084169  
      12A      1.151062    13A      1.366667    14A      1.381716  
      15A      1.580847    16A      1.764006    17A      1.794804  
      18A      2.198339    19A      2.233110    20A      3.057151  
      21A      3.099067    22A      3.247395    23A      3.599752  
      24A      3.866281  

    Beta Occupied:                                                        

       1A    -19.076314     2A     -1.179552     3A     -0.655741  
       4A     -0.521180     5A     -0.446775  

    Beta Virtual:                                                         

       6A      0.162951     7A      0.237432     8A      0.686378  
       9A      0.737097    10A      1.062506    11A      1.084169  
      12A      1.151062    13A      1.366667    14A      1.381716  
      15A      1.580847    16A      1.764006    17A      1.794804  
      18A      2.198339    19A      2.233110    20A      3.057152  
      21A      3.099067    22A      3.247395    23A      3.599752  
      24A      3.866281  

    Final Occupation by Irrep:
              A 
    DOCC [     5 ]
    SOCC [     0 ]

  Energy converged.

  @DF-UKS Final Energy:   -76.40565425937943

   => Energetics <=

    Nuclear Repulsion Energy =              8.8014655299720665
    One-Electron Energy =                -122.5064275266043694
    Two-Electron Energy =                  43.9337953587047849
    DFT Exchange-Correlation Energy =      -6.6344876214519104
    Empirical Dispersion Energy =           0.0000000000000000
    VV10 Nonlocal Energy =                  0.0000000000000000
    Total Energy =                        -76.4056542593794319


  UHF NO Occupations:
  HONO-2 :    3  A 2.0000000
  HONO-1 :    4  A 2.0000000
  HONO-0 :    5  A 2.0000000
  LUNO+0 :    6  A 0.0000000
  LUNO+1 :    7  A 0.0000000
  LUNO+2 :    8  A 0.0000000
  LUNO+3 :    9  A 0.0000000



Properties will be evaluated at   0.000000,   0.000000,   0.000000 Bohr

Properties computed using the SCF density matrix

  Nuclear Dipole Moment: (a.u.)
     X:     0.0000      Y:     0.0000      Z:     1.0191

  Electronic Dipole Moment: (a.u.)
     X:    -0.0000      Y:    -0.0000      Z:    -0.2150

  Dipole Moment: (a.u.)
     X:    -0.0000      Y:    -0.0000      Z:     0.8041     Total:     0.8041

  Dipole Moment: (Debye)
     X:    -0.0000      Y:    -0.0000      Z:     2.0437     Total:     2.0437


*** tstop() called on psinet at Thu Sep 21 02:51:14 2017
Module time:
	user time   =       2.47 seconds =       0.04 minutes
	system time =       0.01 seconds =       0.00 minutes
	total time  =          3 seconds =       0.05 minutes
Total time:
	user time   =      53.01 seconds =       0.88 minutes
	system time =       0.19 seconds =       0.00 minutes
	total time  =         53 seconds =       0.88 minutes

*** tstart() called on psinet
*** at Thu Sep 21 02:51:14 2017

   => Loading Basis Set <=

    Name: CC-PVDZ
    Role: ORBITAL
    Keyword: BASIS
    atoms 1   entry O          line   198 file /home/psilocaluser/gits/hrw-dgas/objdir1/stage/usr/local/psi4/share/psi4/basis/cc-pvdz.gbs 
    atoms 2-3 entry H          line    22 file /home/psilocaluser/gits/hrw-dgas/objdir1/stage/usr/local/psi4/share/psi4/basis/cc-pvdz.gbs 


         ---------------------------------------------------------
                IP Fitting SCF: Cation, Omega =   5.642E-01        
         ---------------------------------------------------------
                                   SCF
            by Justin Turney, Rob Parrish, Andy Simmonett
                             and Daniel Smith
                              UKS Reference
                        1 Threads,    500 MiB Core
         ---------------------------------------------------------

  ==> Geometry <==

    Molecular point group: c1
    Full point group: C2v

    Geometry (in Angstrom), charge = 1, multiplicity = 2:

       Center              X                  Y                   Z               Mass       
    ------------   -----------------  -----------------  -----------------  -----------------
           O          0.000000000000     0.000000000000    -0.068516219310    15.994914619560
           H          0.000000000000    -0.790689573744     0.543701060724     1.007825032070
           H          0.000000000000     0.790689573744     0.543701060724     1.007825032070

  Running in c1 symmetry.

  Rotational constants: A =     25.12555  B =     13.37733  C =      8.72955 [cm^-1]
  Rotational constants: A = 753245.06586  B = 401042.16407  C = 261705.25278 [MHz]
  Nuclear repulsion =    8.801465529972067

  Charge       = 1
  Multiplicity = 2
  Electrons    = 9
  Nalpha       = 5
  Nbeta        = 4

  ==> Algorithm <==

  SCF Algorithm Type is DF.
  DIIS enabled.
  MOM disabled.
  Fractional occupation disabled.
  Guess Type is READ.
  Energy threshold   = 1.00e-06
  Density threshold  = 1.00e-06
  Integral threshold = 0.00e+00

  ==> Primary Basis <==

  Basis Set: CC-PVDZ
    Blend: CC-PVDZ
    Number of shells: 12
    Number of basis function: 24
    Number of Cartesian functions: 25
    Spherical Harmonics?: true
    Max angular momentum: 2

  ==> DFT Potential <==

   => Composite Functional: WB97 <= 

    WB97 GGA Exchange-Correlation Functional

    J.-D. Chai and M. Head-Gordon, J. Chem. Phys. 128, 084106 (2008)

    Deriv               =              1
    GGA                 =           TRUE
    Meta                =          FALSE

    Exchange Hybrid     =          FALSE
    MP2 Hybrid          =          FALSE

   => Exchange-Correlation Functionals <=

    1.0000   wB97 range-separated functional

   => Exact (HF) Exchange <=

    1.0000            HF,LR [omega = 0.5642]

   => Molecular Quadrature <=

    Radial Scheme       =       TREUTLER
    Pruning Scheme      =           FLAT
    Nuclear Scheme      =       TREUTLER

    BS radius alpha     =              1
    Pruning alpha       =              1
    Radial Points       =             75
    Spherical Points    =            302
    Total Points        =          66427
    Total Blocks        =            634
    Max Points          =            200
    Max Functions       =             24

   => Loading Basis Set <=

    Name: (CC-PVDZ AUX)
    Role: JKFIT
    Keyword: DF_BASIS_SCF
    atoms 1   entry O          line   221 file /home/psilocaluser/gits/hrw-dgas/objdir1/stage/usr/local/psi4/share/psi4/basis/cc-pvdz-jkfit.gbs 
    atoms 2-3 entry H          line    51 file /home/psilocaluser/gits/hrw-dgas/objdir1/stage/usr/local/psi4/share/psi4/basis/cc-pvdz-jkfit.gbs 

  Reading orbitals from file 180, no projection.

  ==> Pre-Iterations <==

   -------------------------------------------------------
    Irrep   Nso     Nmo     Nalpha   Nbeta   Ndocc  Nsocc
   -------------------------------------------------------
     A         24      24       5       4       4       1
   -------------------------------------------------------
    Total      24      24       5       4       4       1
   -------------------------------------------------------

  ==> Integral Setup <==

  ==> DFJK: Density-Fitted J/K Matrices <==

    J tasked:                  Yes
    K tasked:                   No
    wK tasked:                 Yes
    Omega:               5.642E-01
    OpenMP threads:              1
    Integrals threads:           1
    Memory (MB):               375
    Algorithm:                Core
    Integral Cache:           LOAD
    Schwarz Cutoff:          1E-12
    Fitting Condition:       1E-12

   => Auxiliary Basis Set <=

  Basis Set: (CC-PVDZ AUX)
    Blend: CC-PVDZ-JKFIT
    Number of shells: 42
    Number of basis function: 116
    Number of Cartesian functions: 131
    Spherical Harmonics?: true
    Max angular momentum: 3

  Minimum eigenvalue in the overlap matrix is 3.7382439507E-02.
  Using Symmetric Orthogonalization.

  SCF Guess: Orbitals guess was supplied from a previous computation.

  ==> Iterations <==

                           Total Energy        Delta E     RMS |[F,P]|

   @DF-UKS iter   0:   -75.85998926671955   -7.58600e+01   1.99058e-02 
   @DF-UKS iter   1:   -75.92532303453959   -6.53338e-02   1.29613e-02 
   @DF-UKS iter   2:   -75.94629928961467   -2.09763e-02   7.73075e-03 DIIS
   @DF-UKS iter   3:   -75.95883392989751   -1.25346e-02   2.65625e-04 DIIS
   @DF-UKS iter   4:   -75.95887429040781   -4.03605e-05   7.80858e-05 DIIS
   @DF-UKS iter   5:   -75.95887901010795   -4.71970e-06   1.99677e-05 DIIS
   @DF-UKS iter   6:   -75.95887934433892   -3.34231e-07   3.32159e-06 DIIS
   @DF-UKS iter   7:   -75.95887935479568   -1.04568e-08   4.98266e-07 DIIS

  ==> Post-Iterations <==

   @Spin Contamination Metric:   3.101743766E-03
   @S^2 Expected:                7.500000000E-01
   @S^2 Observed:                7.531017438E-01
   @S   Expected:                5.000000000E-01
   @S   Observed:                5.000000000E-01

    Orbital Energies (a.u.)
    -----------------------

    Alpha Occupied:                                                       

       1A    -19.646817     2A     -1.717321     3A     -1.150335  
       4A     -1.034242     5A     -1.027400  

    Alpha Virtual:                                                        

       6A     -0.167540     7A     -0.089813     8A      0.310493  
       9A      0.347486    10A      0.603674    11A      0.631941  
      12A      0.742983    13A      0.957407    14A      0.957844  
      15A      1.162627    16A      1.303485    17A      1.402555  
      18A      1.765912    19A      1.776536    20A      2.513351  
      21A      2.553163    22A      2.753999    23A      3.080105  
      24A      3.387510  

    Beta Occupied:                                                        

       1A    -19.634240     2A     -1.634819     3A     -1.123674  
       4A     -0.992723  

    Beta Virtual:                                                         

       5A     -0.443056     6A     -0.154172     7A     -0.081216  
       8A      0.310535     9A      0.359837    10A      0.643404  
      11A      0.681557    12A      0.750473    13A      0.965300  
      14A      0.974665    15A      1.176929    16A      1.312797  
      17A      1.400888    18A      1.778764    19A      1.817862  
      20A      2.597873    21A      2.640076    22A      2.785381  
      23A      3.160171    24A      3.408031  

    Final Occupation by Irrep:
              A 
    DOCC [     4 ]
    SOCC [     1 ]

  Energy converged.

  @DF-UKS Final Energy:   -75.95887935479568

   => Energetics <=

    Nuclear Repulsion Energy =              8.8014655299720665
    One-Electron Energy =                -117.4760417969432353
    Two-Electron Energy =                  39.1907528887829244
    DFT Exchange-Correlation Energy =      -6.4750559766074298
    Empirical Dispersion Energy =           0.0000000000000000
    VV10 Nonlocal Energy =                  0.0000000000000000
    Total Energy =                        -75.9588793547956840


  UHF NO Occupations:
  HONO-2 :    3  A 1.9994997
  HONO-1 :    4  A 1.9991955
  HONO-0 :    5  A 1.0000000
  LUNO+0 :    6  A 0.0008045
  LUNO+1 :    7  A 0.0005003
  LUNO+2 :    8  A 0.0002465
  LUNO+3 :    9  A 0.0000001



Properties will be evaluated at   0.000000,   0.000000,   0.000000 Bohr

Properties computed using the SCF density matrix

  Nuclear Dipole Moment: (a.u.)
     X:     0.0000      Y:     0.0000      Z:     1.0191

  Electronic Dipole Moment: (a.u.)
     X:     0.0000      Y:    -0.0000      Z:    -0.0054

  Dipole Moment: (a.u.)
     X:     0.0000      Y:    -0.0000      Z:     1.0137     Total:     1.0137

  Dipole Moment: (Debye)
     X:     0.0000      Y:    -0.0000      Z:     2.5765     Total:     2.5765


*** tstop() called on psinet at Thu Sep 21 02:51:16 2017
Module time:
	user time   =       1.98 seconds =       0.03 minutes
	system time =       0.01 seconds =       0.00 minutes
	total time  =          2 seconds =       0.03 minutes
Total time:
	user time   =      55.00 seconds =       0.92 minutes
	system time =       0.20 seconds =       0.00 minutes
	total time  =         55 seconds =       0.92 minutes

    ==> IP Fitting Results <==

     => Occupation Determination <= 

                   N     Na     Nb Charge   Mult   HOMO
     Neutral:     10      5      5      0      1     -5
     Cation:       9      5      4      1      2

     => Regula Falsi Iterations <=

      N       Omega             IP            kIP          Delta Type
      1   2.500E+00   4.355770E-01   5.227241E-01  -8.714715E-02 Right Limit
      2   5.000E-02   4.310116E-01   2.406377E-01   1.903739E-01 Left Limit
      3   1.731E+00   4.366989E-01   5.188489E-01  -8.215003E-02 Regula-Falsi
      4   1.224E+00   4.398406E-01   5.087830E-01  -6.894248E-02 Regula-Falsi
      5   7.309E-01   4.456444E-01   4.739543E-01  -2.830991E-02 Regula-Falsi
      6   4.769E-01   4.465265E-01   4.266381E-01   1.988842E-02 Regula-Falsi
      7   5.817E-01   4.467370E-01   4.502622E-01  -3.525111E-03 Regula-Falsi
      8   5.659E-01   4.467723E-01   4.471296E-01  -3.573544E-04 Regula-Falsi
      9   5.629E-01   4.467768E-01   4.465003E-01   2.765047E-04 Regula-Falsi
     10   5.642E-01   4.467749E-01   4.467755E-01  -5.662551E-07 Regula-Falsi
     11   5.642E-01   4.467749E-01   4.467749E-01  -9.022425E-10 Regula-Falsi
     12   5.642E-01   4.467749E-01   4.467749E-01   8.994668E-10 Regula-Falsi

    IP Fitting Converged
    Final omega =   5.641996E-01

    "M,I. does the dying. Fleet just does the flying."
            -Starship Troopers
	Fit Omega.........................................................PASSED
	Mol Chg...........................................................PASSED

*** Psi4 exiting successfully. Buy a developer a beer!
