
    -----------------------------------------------------------------------
          Psi4: An Open-Source Ab Initio Electronic Structure Package
                               Psi4 undefined 

                         Git: Rev {xc_tests} ce7e7e9 dirty


    R. M. Parrish, L. A. Burns, D. G. A. Smith, A. C. Simmonett,
    A. E. DePrince III, E. G. Hohenstein, U. Bozkaya, A. Yu. Sokolov,
    R. Di Remigio, R. M. Richard, J. F. Gonthier, A. M. James,
    H. R. McAlexander, A. Kumar, M. Saitow, X. Wang, B. P. Pritchard,
    P. Verma, H. F. Schaefer III, K. Patkowski, R. A. King, E. F. Valeev,
    F. A. Evangelista, J. M. Turney, T. D. Crawford, and C. D. Sherrill,
    J. Chem. Theory Comput. 13(7) pp 3185--3197 (2017).
    (doi: 10.1021/acs.jctc.7b00174)

    -----------------------------------------------------------------------


    Psi4 started on: Thursday, 01 March 2018 07:43PM

    Process ID:  18040
    PSIDATADIR: /theoryfs2/ds/bakr/gits/psi4/objdir/stage/theoryfs2/ds/bakr/psi4/build_release/share/psi4
    Memory:     500.0 MiB
    Threads:    6
    
  ==> Input File <==

--------------------------------------------------------------------------
molecule h2o_dimer {
0 1
O  -1.551007  -0.114520   0.000000
H  -1.934259   0.762503   0.000000
H  -0.599677   0.040712   0.000000
--
0 1
O   1.350625   0.111469   0.000000
H   1.680398  -0.373741  -0.758561
H   1.680398  -0.373741   0.758561
no_reorient
}

set {
   basis 6-31G
   dft_radial_points 200
   dft_spherical_points 590                
   guess sad
   e_convergence 9 
   d_convergence 9 
}

qchem_data = {                              #TEST
     'M08-SO':  -0.015457831899993835,      #TEST
       'EDF1':   -0.01126603059999809,      #TEST
    'MPW1B95':  -0.014382823700003655,      #TEST
     'B97-D3':  -0.014457017899999869,      #TEST
     'PW6B95':  -0.014544493599998987,      #TEST
      'wB97X':  -0.015628902399981826,      #TEST
     'B3LYP5':  -0.014495724699997936,      #TEST
  'LRC-wPBEh':  -0.014707218200015859,      #TEST
      'B97-3':  -0.013107695500011118,      #TEST
    'wB97M-V':  -0.015223345600006155,      #TEST
       'dlDF':  -0.010088011800021945,      #TEST
       'PW91':  -0.016014746499990906,      #TEST
       'VV10':  -0.016081289799984688,      #TEST
    'HCTH147':  -0.013252202800018154,      #TEST
    'wB97X-D':  -0.014624603200005026,      #TEST
      'B1B95':  -0.013252541999989376,      #TEST
   'B5050LYP':  -0.014947490799997354,      #TEST
    'HCTH407':  -0.013576969300018504,      #TEST
     'M08-HX':  -0.015079677599985075,      #TEST
        'M06':   -0.01433740340000611,      #TEST
     'MPWB1K':  -0.014399146500011284,      #TEST
      'B3LYP':  -0.014530691900006332,      #TEST
     'B1PW91':   -0.01306882930001052,      #TEST
      'MPW1K':  -0.014260395900009826,      #TEST
      'M11-L':  -0.012019633599990698,      #TEST
   'MGGA_MS1':   -0.01351906039998596,      #TEST
  'CAM-B3LYP':  -0.015949469999995358,      #TEST
    'HCTH120':  -0.014021496899999875,      #TEST
     'B97M-V':  -0.014093954400010489,      #TEST
       'TPSS':  -0.014166766300007794,      #TEST
     'M06-2X':  -0.014908116099988433,      #TEST
        'M05':  -0.015658180300007984,      #TEST
     'BHHLYP':  -0.014826161000002003,      #TEST
     'B3PW91':  -0.013387121399986768,      #TEST
       'BB1K':   -0.01348168410000028,      #TEST
     'M06-HF':  -0.015305073399986213,      #TEST
        'BOP':  -0.011758206199985466,      #TEST
   'MGGA_MS2':  -0.013864158900005918,      #TEST
   'MGGA_MS0':  -0.014110803499988833,      #TEST
      'B97-K':  -0.014334623400017676,      #TEST
    'revTPSS':   -0.01401370380000344,      #TEST
     'HCTH93':  -0.011037074399993685,      #TEST
       'wB97':    -0.0160148410000005,      #TEST
       'BP86':  -0.013888959300004444,      #TEST
       'PBE0':  -0.014959106900008123,      #TEST
       'BLYP':  -0.014295819799983178,      #TEST
        'B97':  -0.013959107299996276,      #TEST
      'X3LYP':   -0.01518704669999238,      #TEST
      'B97-1':  -0.014677337999998485,      #TEST
   'revTPSSh':  -0.013956341099998326,      #TEST
    'LC-VV10':   -0.01564637040000605,      #TEST
      'O3LYP':  -0.012458762299985437,      #TEST
      'PWB6K':  -0.015027543100018192,      #TEST
     'M05-2X':  -0.015140837600000623,      #TEST
        'M11':  -0.015210644100008608,      #TEST
      'B1LYP':   -0.01442269369998428,      #TEST
       'EDF2':  -0.015517714200015575,      #TEST
      'B3P86':  -0.014204538500010244,      #TEST
        'PBE':  -0.015458037099989497,      #TEST
      'B97-2':  -0.013202621199994269,      #TEST
    'wB97X-V':  -0.015110275099985415,      #TEST
   'LRC-wPBE':  -0.014715257600002474,      #TEST
      'TPSSh':  -0.014080877399976544,      #TEST
      'B97-D':   -0.01404225510000856,      #TEST
   'wB97X-D3':  -0.014866630699998495,      #TEST
# The following functionals are not included 
# in Psi4 at the moment. 
#      'VSXC':  -0.013831423100000961,      #TEST
#   'wM06-D3':   -0.01516112189999319,      #TEST
#     'SCAN0':  -0.015104640800018387,      #TEST
#   'revPBE0':  -0.013125196299981212,      #TEST
#    'revPBE':  -0.012936360399990576,      #TEST
#   'SOGGA11':  -0.013399847600013004,      #TEST
#  'MPW1PW91':  -0.014253465099983487,      #TEST
#   'MN12-SX':  -0.013014032299992095,      #TEST
# 'MGGA_MS2h':  -0.013884631800010538,      #TEST
#    'MN12-L':  -0.012247615899994457,      #TEST
#       'BMK':  -0.013459764800003882,      #TEST
#       'N12':  -0.015315167000011343,      #TEST
#  'MGGA_MVS':  -0.014523163799992744,      #TEST
#   'MPW1PBE':  -0.014213777900010882,      #TEST
#      'PKZB':  -0.010730960099991194,      #TEST
#     'SOGGA':   -0.01718002680000552,      #TEST
#    'MN15-L':  -0.012257241699998644,      #TEST
#    't-HCTH':  -0.013934805299996356,      #TEST
#    'B3TLAP':  -0.015522181499989074,      #TEST
#   'BP86VWN':  -0.013888425199994003,      #TEST
#     'PBE50':   -0.01474868999999046,      #TEST
#   'LRC-BOP':  -0.015729893699997888,      #TEST
# 'MGGA_MVSh':  -0.014513894700002083,      #TEST
# 'SOGGA11-X':  -0.014139857399996458,      #TEST
#   't-HCTHh':   -0.01431957730001443,      #TEST
#    'PBEsol':  -0.016973350200004234,      #TEST
#    'wM05-D':  -0.014749651200006042,      #TEST
#     'M06-L':  -0.013173485099997606,      #TEST
#    'N12-SX':  -0.015641602000002308,      #TEST
#     'PBEOP':  -0.014218454399994584,      #TEST
#      'SCAN':   -0.01516967690001536,      #TEST
#   'MPW1LYP':  -0.015608801100000846,      #TEST
#       'GAM':   -0.01491073450002034,      #TEST
}                                           #TEST

# Current version of Psi4 does not match Q-Chem for these tests
expected_fail_qchem = ['B97-D', 'wB97X-D3'] #TEST

# The following data is from an older 
# version of Psi4 (~April 2017, SHA: 53e752c)  
old_psi4_data = {                           #TEST 
      'BP86': -0.013889878815405154,        #TEST
      'BLYP': -0.014294874492634335,        #TEST
    'B97-D3': -0.014455902448531788,        #TEST
    'B3LYP5': -0.014494768950584103,        #TEST
       'PBE': -0.015457134998626998,        #TEST
    'M05-2X': -0.015145056492713138,        #TEST
   'wB97X-D': -0.014613361929264101,        #TEST
      'wB97': -0.015991295341081013,        #TEST
   'HCTH120': -0.014020533321001949,        #TEST
      'dlDF': -0.010087591449917,           #TEST
      'PBE0': -0.014958205517643819,        #TEST
     'B97-1': -0.014676434498966273,        #TEST
      'PW91': -0.01602902561316455,         #TEST
       'M05': -0.015654414236166758,        #TEST
     'B3LYP': -0.014529738435527406,        #TEST
   'HCTH407': -0.013575929357500627,        #TEST
   'HCTH147': -0.01325130624383064,         #TEST
     'SOGGA': -0.01806810274382542,         #TEST
     'B97-2': -0.013201680603032173,        #TEST
     'B97-D': -0.014041140231540794,        #TEST
     'wB97X': -0.01638428793378921,         #TEST
}                                           #TEST

# Current version of Psi4 does not match pre-LibXC Psi4
# (~April 2017, SHA: 53e752c)
expected_fail_old_psi4 = ['B97-D', 'wB97X'] #TEST


for func in qchem_data.keys():                                                                                 #TEST
    psi4_ie = energy(func, molecule=h2o_dimer, bsse_type='nocp')                                               #TEST
                                                                                                               #TEST 
    qchem_ie = qchem_data[func]                                                                                #TEST
                                                                                                               #TEST 
    if func in expected_fail_qchem:                                                                            #TEST
        compare_values(qchem_ie, psi4_ie, 4, func + ': Psi4 vs. Q-Chem', exitonfail = False)                   #TEST
    else:                                                                                                      #TEST
        compare_values(qchem_ie, psi4_ie, 4, func + ': Psi4 vs. Q-Chem')                                       #TEST
                                                                                                               #TEST
    if func not in old_psi4_data:                                                                              #TEST
        continue                                                                                               #TEST    
                                                                                                               #TEST      
    old_psi4_ie = old_psi4_data[func]                                                                          #TEST
    if func in expected_fail_old_psi4:                                                                         #TEST
        compare_values(old_psi4_ie, psi4_ie, 6, func + ': Psi4 vs. Psi4 1.0 (pre-Libxc)', exitonfail = False)  #TEST
    else:                                                                                                      #TEST
        compare_values(old_psi4_ie, psi4_ie, 6, func + ': Psi4 vs. Psi4 1.0 (pre-Libxc)')                      #TEST
--------------------------------------------------------------------------


   ===> N-Body Interaction Abacus <===
        BSSE Treatment:                     nocp
        Number of 1-body computations:     2
        Number of 2-body computations:     1

   ==> N-Body: Now computing 1-body complexes <==


       N-Body: Computing complex (1/2) with fragments (2,) in the basis of fragments (2,).


*** tstart() called on ds1.sherrill.chemistry.gatech.edu
*** at Thu Mar  1 19:43:16 2018

   => Loading Basis Set <=

    Name: 6-31G
    Role: ORBITAL
    Keyword: BASIS
    atoms 1   entry O          line   117 file /theoryfs2/ds/bakr/gits/psi4/objdir/stage/theoryfs2/ds/bakr/psi4/build_release/share/psi4/basis/6-31g.gbs 
    atoms 2-3 entry H          line    26 file /theoryfs2/ds/bakr/gits/psi4/objdir/stage/theoryfs2/ds/bakr/psi4/build_release/share/psi4/basis/6-31g.gbs 


         ---------------------------------------------------------
                                   SCF
            by Justin Turney, Rob Parrish, Andy Simmonett
                             and Daniel Smith
                              RKS Reference
                        6 Threads,    500 MiB Core
         ---------------------------------------------------------

  ==> Geometry <==

    Molecular point group: cs
    Full point group: Cs

    Geometry (in Angstrom), charge = 0, multiplicity = 1:

       Center              X                  Y                   Z               Mass       
    ------------   -----------------  -----------------  -----------------  -----------------
           O         -0.036906503504     0.054302215660     0.000000000000    15.994914619560
           H          0.292866496496    -0.430907784340    -0.758561000000     1.007825032070
           H          0.292866496496    -0.430907784340     0.758561000000     1.007825032070

  Running in cs symmetry.

  Rotational constants: A =     27.36166  B =     14.53451  C =      9.49223 [cm^-1]
  Rotational constants: A = 820281.89285  B = 435733.58803  C = 284570.03740 [MHz]
  Nuclear repulsion =    9.178038904903588

  Charge       = 0
  Multiplicity = 1
  Electrons    = 10
  Nalpha       = 5
  Nbeta        = 5

  ==> Algorithm <==

  SCF Algorithm Type is DF.
  DIIS enabled.
  MOM disabled.
  Fractional occupation disabled.
  Guess Type is SAD.
  Energy threshold   = 1.00e-09
  Density threshold  = 1.00e-09
  Integral threshold = 0.00e+00

  ==> Primary Basis <==

  Basis Set: 6-31G
    Blend: 6-31G
    Number of shells: 9
    Number of basis function: 13
    Number of Cartesian functions: 13
    Spherical Harmonics?: false
    Max angular momentum: 1

  ==> DFT Potential <==

   => Composite Functional: M08-SO <= 

    M08-SO Hyb-GGA Exchange-Correlation Functional

    Y. Zhao and D. G. Truhlar, J. Chem. Theory Comput. 4, 1849 (2008)

    Deriv               =              1
    GGA                 =           TRUE
    Meta                =           TRUE

    Exchange Hybrid     =           TRUE
    MP2 Hybrid          =          FALSE

   => Exchange Functionals <=

    1.0000   Worker for hyb_mgga_x_m08_so

   => Exact (HF) Exchange <=

    0.5679               HF 

   => Correlation Functionals <=

    1.0000   Worker for hyb_mgga_xc_m08_so

   => Molecular Quadrature <=

    Radial Scheme       =       TREUTLER
    Pruning Scheme      =           FLAT
    Nuclear Scheme      =       TREUTLER

    BS radius alpha     =              1
    Pruning alpha       =              1
    Radial Points       =            200
    Spherical Points    =            590
    Total Points        =         339888
    Total Blocks        =           2506
    Max Points          =            256
    Max Functions       =             13

   => Loading Basis Set <=

    Name: (6-31G AUX)
    Role: JKFIT
    Keyword: DF_BASIS_SCF
    atoms 1   entry O          line   221 file /theoryfs2/ds/bakr/gits/psi4/objdir/stage/theoryfs2/ds/bakr/psi4/build_release/share/psi4/basis/cc-pvdz-jkfit.gbs 
    atoms 2-3 entry H          line    51 file /theoryfs2/ds/bakr/gits/psi4/objdir/stage/theoryfs2/ds/bakr/psi4/build_release/share/psi4/basis/cc-pvdz-jkfit.gbs 

  ==> Pre-Iterations <==

   -------------------------------------------------------
    Irrep   Nso     Nmo     Nalpha   Nbeta   Ndocc  Nsocc
   -------------------------------------------------------
     A'         9       9       0       0       0       0
     A"         4       4       0       0       0       0
   -------------------------------------------------------
    Total      13      13       5       5       5       0
   -------------------------------------------------------

  ==> Integral Setup <==

  ==> DFJK: Density-Fitted J/K Matrices <==

    J tasked:                  Yes
    K tasked:                  Yes
    wK tasked:                  No
    OpenMP threads:              6
    Integrals threads:           6
    Memory (MB):               375
    Algorithm:                Core
    Integral Cache:           NONE
    Schwarz Cutoff:          1E-12
    Fitting Condition:       1E-12

   => Auxiliary Basis Set <=

  Basis Set: (6-31G AUX)
    Blend: CC-PVDZ-JKFIT
    Number of shells: 42
    Number of basis function: 131
    Number of Cartesian functions: 131
    Spherical Harmonics?: false
    Max angular momentum: 3

  Minimum eigenvalue in the overlap matrix is 6.8006008193E-02.
  Using Symmetric Orthogonalization.

  SCF Guess: Superposition of Atomic Densities via on-the-fly atomic UHF.

  ==> Iterations <==

                           Total Energy        Delta E     RMS |[F,P]|

   @DF-RKS iter   0:   -76.43568065264479   -7.64357e+01   3.16712e-01 
   @DF-RKS iter   1:   -76.26683415675183    1.68846e-01   7.63823e-02 
   @DF-RKS iter   2:   -76.27182417769549   -4.99002e-03   8.16934e-02 DIIS
   @DF-RKS iter   3:   -76.33269037456094   -6.08662e-02   2.89501e-03 DIIS
   @DF-RKS iter   4:   -76.33278619225334   -9.58177e-05   3.32740e-04 DIIS
   @DF-RKS iter   5:   -76.33279019366447   -4.00141e-06   6.57597e-05 DIIS
   @DF-RKS iter   6:   -76.33279027148268   -7.78182e-08   7.54795e-06 DIIS
   @DF-RKS iter   7:   -76.33279027267730   -1.19462e-09   2.99632e-07 DIIS
   @DF-RKS iter   8:   -76.33279027267902   -1.71951e-12   1.00354e-08 DIIS
   @DF-RKS iter   9:   -76.33279027267903   -1.42109e-14   9.45986e-10 DIIS

  ==> Post-Iterations <==

    Orbital Energies (a.u.)
    -----------------------

    Doubly Occupied:                                                      

       1Ap   -19.576842     2Ap    -1.127500     1App   -0.609190  
       3Ap    -0.443377     4Ap    -0.386334  

    Virtual:                                                              

       5Ap     0.095457     2App    0.182702     3App    0.862615  
       6Ap     0.944154     7Ap     0.947642     8Ap     1.010484  
       4App    1.123030     9Ap     1.461452  

    Final Occupation by Irrep:
             Ap   App 
    DOCC [     4,    1 ]

  Energy converged.

  @DF-RKS Final Energy:   -76.33279027267903

   => Energetics <=

    Nuclear Repulsion Energy =              9.1780389049035875
    One-Electron Energy =                -122.9663729508120298
    Two-Electron Energy =                  41.6711581207511230
    DFT Exchange-Correlation Energy =      -4.2156143475217220
    Empirical Dispersion Energy =           0.0000000000000000
    VV10 Nonlocal Energy =                  0.0000000000000000
    Total Energy =                        -76.3327902726790342



Properties will be evaluated at   0.000000,   0.000000,   0.000000 Bohr

Properties computed using the SCF density matrix

  Nuclear Dipole Moment: (a.u.)
     X:     0.5489      Y:    -0.8077      Z:     0.0000

  Electronic Dipole Moment: (a.u.)
     X:     0.0186      Y:    -0.0274      Z:     0.0000

  Dipole Moment: (a.u.)
     X:     0.5676      Y:    -0.8351      Z:     0.0000     Total:     1.0097

  Dipole Moment: (Debye)
     X:     1.4426      Y:    -2.1226      Z:     0.0000     Total:     2.5664


*** tstop() called on ds1.sherrill.chemistry.gatech.edu at Thu Mar  1 19:43:18 2018
Module time:
	user time   =      21.45 seconds =       0.36 minutes
	system time =       0.45 seconds =       0.01 minutes
	total time  =          2 seconds =       0.03 minutes
Total time:
	user time   =      21.45 seconds =       0.36 minutes
	system time =       0.45 seconds =       0.01 minutes
	total time  =          2 seconds =       0.03 minutes

       N-Body: Complex Energy (fragments = (2,), basis = (2,):   -76.33279027267903)

       N-Body: Computing complex (2/2) with fragments (1,) in the basis of fragments (1,).


*** tstart() called on ds1.sherrill.chemistry.gatech.edu
*** at Thu Mar  1 19:43:18 2018

   => Loading Basis Set <=

    Name: 6-31G
    Role: ORBITAL
    Keyword: BASIS
    atoms 1   entry O          line   117 file /theoryfs2/ds/bakr/gits/psi4/objdir/stage/theoryfs2/ds/bakr/psi4/build_release/share/psi4/basis/6-31g.gbs 
    atoms 2-3 entry H          line    26 file /theoryfs2/ds/bakr/gits/psi4/objdir/stage/theoryfs2/ds/bakr/psi4/build_release/share/psi4/basis/6-31g.gbs 


         ---------------------------------------------------------
                                   SCF
            by Justin Turney, Rob Parrish, Andy Simmonett
                             and Daniel Smith
                              RKS Reference
                        6 Threads,    500 MiB Core
         ---------------------------------------------------------

  ==> Geometry <==

    Molecular point group: cs
    Full point group: Cs

    Geometry (in Angstrom), charge = 0, multiplicity = 1:

       Center              X                  Y                   Z               Mass       
    ------------   -----------------  -----------------  -----------------  -----------------
           O         -0.031788188689    -0.057762343755     0.000000000000    15.994914619560
           H         -0.415040188689     0.819260656245     0.000000000000     1.007825032070
           H          0.919541811311     0.097469656245     0.000000000000     1.007825032070

  Running in cs symmetry.

  Rotational constants: A =     27.13720  B =     14.53088  C =      9.46354 [cm^-1]
  Rotational constants: A = 813552.74647  B = 435624.91870  C = 283709.72274 [MHz]
  Nuclear repulsion =    9.163830145965930

  Charge       = 0
  Multiplicity = 1
  Electrons    = 10
  Nalpha       = 5
  Nbeta        = 5

  ==> Algorithm <==

  SCF Algorithm Type is DF.
  DIIS enabled.
  MOM disabled.
  Fractional occupation disabled.
  Guess Type is SAD.
  Energy threshold   = 1.00e-09
  Density threshold  = 1.00e-09
  Integral threshold = 0.00e+00

  ==> Primary Basis <==

  Basis Set: 6-31G
    Blend: 6-31G
    Number of shells: 9
    Number of basis function: 13
    Number of Cartesian functions: 13
    Spherical Harmonics?: false
    Max angular momentum: 1

  ==> DFT Potential <==

   => Composite Functional: M08-SO <= 

    M08-SO Hyb-GGA Exchange-Correlation Functional

    Y. Zhao and D. G. Truhlar, J. Chem. Theory Comput. 4, 1849 (2008)

    Deriv               =              1
    GGA                 =           TRUE
    Meta                =           TRUE

    Exchange Hybrid     =           TRUE
    MP2 Hybrid          =          FALSE

   => Exchange Functionals <=

    1.0000   Worker for hyb_mgga_x_m08_so

   => Exact (HF) Exchange <=

    0.5679               HF 

   => Correlation Functionals <=

    1.0000   Worker for hyb_mgga_xc_m08_so

   => Molecular Quadrature <=

    Radial Scheme       =       TREUTLER
    Pruning Scheme      =           FLAT
    Nuclear Scheme      =       TREUTLER

    BS radius alpha     =              1
    Pruning alpha       =              1
    Radial Points       =            200
    Spherical Points    =            590
    Total Points        =         339883
    Total Blocks        =           2492
    Max Points          =            256
    Max Functions       =             13

   => Loading Basis Set <=

    Name: (6-31G AUX)
    Role: JKFIT
    Keyword: DF_BASIS_SCF
    atoms 1   entry O          line   221 file /theoryfs2/ds/bakr/gits/psi4/objdir/stage/theoryfs2/ds/bakr/psi4/build_release/share/psi4/basis/cc-pvdz-jkfit.gbs 
    atoms 2-3 entry H          line    51 file /theoryfs2/ds/bakr/gits/psi4/objdir/stage/theoryfs2/ds/bakr/psi4/build_release/share/psi4/basis/cc-pvdz-jkfit.gbs 

  ==> Pre-Iterations <==

   -------------------------------------------------------
    Irrep   Nso     Nmo     Nalpha   Nbeta   Ndocc  Nsocc
   -------------------------------------------------------
     A'        11      11       0       0       0       0
     A"         2       2       0       0       0       0
   -------------------------------------------------------
    Total      13      13       5       5       5       0
   -------------------------------------------------------

  ==> Integral Setup <==

  ==> DFJK: Density-Fitted J/K Matrices <==

    J tasked:                  Yes
    K tasked:                  Yes
    wK tasked:                  No
    OpenMP threads:              6
    Integrals threads:           6
    Memory (MB):               375
    Algorithm:                Core
    Integral Cache:           NONE
    Schwarz Cutoff:          1E-12
    Fitting Condition:       1E-12

   => Auxiliary Basis Set <=

  Basis Set: (6-31G AUX)
    Blend: CC-PVDZ-JKFIT
    Number of shells: 42
    Number of basis function: 131
    Number of Cartesian functions: 131
    Spherical Harmonics?: false
    Max angular momentum: 3

  Minimum eigenvalue in the overlap matrix is 6.8158211762E-02.
  Using Symmetric Orthogonalization.

  SCF Guess: Superposition of Atomic Densities via on-the-fly atomic UHF.

  ==> Iterations <==

                           Total Energy        Delta E     RMS |[F,P]|

   @DF-RKS iter   0:   -76.41804845681995   -7.64180e+01   3.15232e-01 
   @DF-RKS iter   1:   -76.26923483509387    1.48814e-01   7.47769e-02 
   @DF-RKS iter   2:   -76.27443166708784   -5.19683e-03   1.05313e-01 DIIS
   @DF-RKS iter   3:   -76.33271669400412   -5.82850e-02   2.58527e-03 DIIS
   @DF-RKS iter   4:   -76.33279575563819   -7.90616e-05   3.16595e-04 DIIS
   @DF-RKS iter   5:   -76.33279839140047   -2.63576e-06   4.83191e-05 DIIS
   @DF-RKS iter   6:   -76.33279842906752   -3.76670e-08   8.64263e-06 DIIS
   @DF-RKS iter   7:   -76.33279843106844   -2.00092e-09   7.13330e-07 DIIS
   @DF-RKS iter   8:   -76.33279843109267   -2.42295e-11   6.38896e-08 DIIS
   @DF-RKS iter   9:   -76.33279843109284   -1.70530e-13   7.71961e-09 DIIS
   @DF-RKS iter  10:   -76.33279843109283    1.42109e-14   3.59700e-10 DIIS

  ==> Post-Iterations <==

    Orbital Energies (a.u.)
    -----------------------

    Doubly Occupied:                                                      

       1Ap   -19.577271     2Ap    -1.127037     3Ap    -0.608132  
       4Ap    -0.443690     1App   -0.386315  

    Virtual:                                                              

       5Ap     0.095067     6Ap     0.182291     7Ap     0.860712  
       8Ap     0.943095     2App    0.947585     9Ap     1.011063  
      10Ap     1.122543    11Ap     1.462026  

    Final Occupation by Irrep:
             Ap   App 
    DOCC [     4,    1 ]

  Energy converged.

  @DF-RKS Final Energy:   -76.33279843109283

   => Energetics <=

    Nuclear Repulsion Energy =              9.1638301459659299
    One-Electron Energy =                -122.9400917692430824
    Two-Electron Energy =                  41.6584982248619795
    DFT Exchange-Correlation Energy =      -4.2150350326776413
    Empirical Dispersion Energy =           0.0000000000000000
    VV10 Nonlocal Energy =                  0.0000000000000000
    Total Energy =                        -76.3327984310928258



Properties will be evaluated at   0.000000,   0.000000,   0.000000 Bohr

Properties computed using the SCF density matrix

  Nuclear Dipole Moment: (a.u.)
     X:     0.4728      Y:     0.8591      Z:     0.0000

  Electronic Dipole Moment: (a.u.)
     X:     0.0115      Y:     0.0285      Z:     0.0000

  Dipole Moment: (a.u.)
     X:     0.4843      Y:     0.8876      Z:     0.0000     Total:     1.0111

  Dipole Moment: (Debye)
     X:     1.2309      Y:     2.2561      Z:     0.0000     Total:     2.5700


*** tstop() called on ds1.sherrill.chemistry.gatech.edu at Thu Mar  1 19:43:21 2018
Module time:
	user time   =      24.55 seconds =       0.41 minutes
	system time =       0.51 seconds =       0.01 minutes
	total time  =          3 seconds =       0.05 minutes
Total time:
	user time   =      46.14 seconds =       0.77 minutes
	system time =       0.97 seconds =       0.02 minutes
	total time  =          5 seconds =       0.08 minutes

       N-Body: Complex Energy (fragments = (1,), basis = (1,):   -76.33279843109283)

   ==> N-Body: Now computing 2-body complexes <==


       N-Body: Computing complex (1/1) with fragments (1, 2) in the basis of fragments (1, 2).


*** tstart() called on ds1.sherrill.chemistry.gatech.edu
*** at Thu Mar  1 19:43:21 2018

   => Loading Basis Set <=

    Name: 6-31G
    Role: ORBITAL
    Keyword: BASIS
    atoms 1, 4     entry O          line   117 file /theoryfs2/ds/bakr/gits/psi4/objdir/stage/theoryfs2/ds/bakr/psi4/build_release/share/psi4/basis/6-31g.gbs 
    atoms 2-3, 5-6 entry H          line    26 file /theoryfs2/ds/bakr/gits/psi4/objdir/stage/theoryfs2/ds/bakr/psi4/build_release/share/psi4/basis/6-31g.gbs 


         ---------------------------------------------------------
                                   SCF
            by Justin Turney, Rob Parrish, Andy Simmonett
                             and Daniel Smith
                              RKS Reference
                        6 Threads,    500 MiB Core
         ---------------------------------------------------------

  ==> Geometry <==

    Molecular point group: cs
    Full point group: Cs

    Geometry (in Angstrom), charge = 0, multiplicity = 1:

       Center              X                  Y                   Z               Mass       
    ------------   -----------------  -----------------  -----------------  -----------------
           O         -1.485163346097    -0.114724564047     0.000000000000    15.994914619560
           H         -1.868415346097     0.762298435953     0.000000000000     1.007825032070
           H         -0.533833346097     0.040507435953     0.000000000000     1.007825032070
           O          1.416468653903     0.111264435953     0.000000000000    15.994914619560
           H          1.746241653903    -0.373945564047    -0.758561000000     1.007825032070
           H          1.746241653903    -0.373945564047     0.758561000000     1.007825032070

  Running in cs symmetry.

  Rotational constants: A =      7.15151  B =      0.21457  C =      0.21447 [cm^-1]
  Rotational constants: A = 214396.91676  B =   6432.69056  C =   6429.61813 [MHz]
  Nuclear repulsion =   36.662847852755299

  Charge       = 0
  Multiplicity = 1
  Electrons    = 20
  Nalpha       = 10
  Nbeta        = 10

  ==> Algorithm <==

  SCF Algorithm Type is DF.
  DIIS enabled.
  MOM disabled.
  Fractional occupation disabled.
  Guess Type is SAD.
  Energy threshold   = 1.00e-09
  Density threshold  = 1.00e-09
  Integral threshold = 0.00e+00

  ==> Primary Basis <==

  Basis Set: 6-31G
    Blend: 6-31G
    Number of shells: 18
    Number of basis function: 26
    Number of Cartesian functions: 26
    Spherical Harmonics?: false
    Max angular momentum: 1

  ==> DFT Potential <==

   => Composite Functional: M08-SO <= 

    M08-SO Hyb-GGA Exchange-Correlation Functional

    Y. Zhao and D. G. Truhlar, J. Chem. Theory Comput. 4, 1849 (2008)

    Deriv               =              1
    GGA                 =           TRUE
    Meta                =           TRUE

    Exchange Hybrid     =           TRUE
    MP2 Hybrid          =          FALSE

   => Exchange Functionals <=

    1.0000   Worker for hyb_mgga_x_m08_so

   => Exact (HF) Exchange <=

    0.5679               HF 

   => Correlation Functionals <=

    1.0000   Worker for hyb_mgga_xc_m08_so

   => Molecular Quadrature <=

    Radial Scheme       =       TREUTLER
    Pruning Scheme      =           FLAT
    Nuclear Scheme      =       TREUTLER

    BS radius alpha     =              1
    Pruning alpha       =              1
    Radial Points       =            200
    Spherical Points    =            590
    Total Points        =         684386
    Total Blocks        =           4833
    Max Points          =            256
    Max Functions       =             25

   => Loading Basis Set <=

    Name: (6-31G AUX)
    Role: JKFIT
    Keyword: DF_BASIS_SCF
    atoms 1, 4     entry O          line   221 file /theoryfs2/ds/bakr/gits/psi4/objdir/stage/theoryfs2/ds/bakr/psi4/build_release/share/psi4/basis/cc-pvdz-jkfit.gbs 
    atoms 2-3, 5-6 entry H          line    51 file /theoryfs2/ds/bakr/gits/psi4/objdir/stage/theoryfs2/ds/bakr/psi4/build_release/share/psi4/basis/cc-pvdz-jkfit.gbs 

  ==> Pre-Iterations <==

   -------------------------------------------------------
    Irrep   Nso     Nmo     Nalpha   Nbeta   Ndocc  Nsocc
   -------------------------------------------------------
     A'        20      20       0       0       0       0
     A"         6       6       0       0       0       0
   -------------------------------------------------------
    Total      26      26      10      10      10       0
   -------------------------------------------------------

  ==> Integral Setup <==

  ==> DFJK: Density-Fitted J/K Matrices <==

    J tasked:                  Yes
    K tasked:                  Yes
    wK tasked:                  No
    OpenMP threads:              6
    Integrals threads:           6
    Memory (MB):               375
    Algorithm:                Core
    Integral Cache:           NONE
    Schwarz Cutoff:          1E-12
    Fitting Condition:       1E-12

   => Auxiliary Basis Set <=

  Basis Set: (6-31G AUX)
    Blend: CC-PVDZ-JKFIT
    Number of shells: 84
    Number of basis function: 262
    Number of Cartesian functions: 262
    Spherical Harmonics?: false
    Max angular momentum: 3

  Minimum eigenvalue in the overlap matrix is 4.5598313267E-02.
  Using Symmetric Orthogonalization.

  SCF Guess: Superposition of Atomic Densities via on-the-fly atomic UHF.

  ==> Iterations <==

                           Total Energy        Delta E     RMS |[F,P]|

   @DF-RKS iter   0:  -152.74321777675831   -1.52743e+02   1.20890e-01 
   @DF-RKS iter   1:  -152.58874869659525    1.54469e-01   2.50170e-02 
   @DF-RKS iter   2:  -152.59621500220328   -7.46631e-03   2.39555e-02 DIIS
   @DF-RKS iter   3:  -152.68089424564286   -8.46792e-02   7.36730e-04 DIIS
   @DF-RKS iter   4:  -152.68102425778054   -1.30012e-04   3.72543e-04 DIIS
   @DF-RKS iter   5:  -152.68104609637024   -2.18386e-05   1.53067e-04 DIIS
   @DF-RKS iter   6:  -152.68104932705242   -3.23068e-06   9.09832e-06 DIIS
   @DF-RKS iter   7:  -152.68104936204912   -3.49967e-08   1.66244e-06 DIIS
   @DF-RKS iter   8:  -152.68104936318187   -1.13275e-09   1.27179e-07 DIIS
   @DF-RKS iter   9:  -152.68104936319330   -1.14255e-11   1.66982e-08 DIIS
   @DF-RKS iter  10:  -152.68104936319344   -1.42109e-13   3.11331e-09 DIIS
   @DF-RKS iter  11:  -152.68104936319349   -5.68434e-14   3.11269e-10 DIIS

  ==> Post-Iterations <==

    Orbital Energies (a.u.)
    -----------------------

    Doubly Occupied:                                                      

       1Ap   -19.614278     2Ap   -19.536211     3Ap    -1.162658  
       4Ap    -1.088049     1App   -0.643023     5Ap    -0.576504  
       6Ap    -0.485242     7Ap    -0.428975     8Ap    -0.401370  
       2App   -0.351238  

    Virtual:                                                              

       9Ap     0.069150    10Ap     0.149259     3App    0.159953  
      11Ap     0.289265     4App    0.827358    12Ap     0.889594  
      13Ap     0.908175    14Ap     0.964117     5App    0.982631  
      15Ap     0.994264    16Ap     1.050173    17Ap     1.065869  
       6App    1.089682    18Ap     1.203851    19Ap     1.417343  
      20Ap     1.762159  

    Final Occupation by Irrep:
             Ap   App 
    DOCC [     8,    2 ]

  Energy converged.

  @DF-RKS Final Energy:  -152.68104936319349

   => Energetics <=

    Nuclear Repulsion Energy =             36.6628478527552986
    One-Electron Energy =                -282.5703741619312268
    Two-Electron Energy =                 101.6625996464958490
    DFT Exchange-Correlation Energy =      -8.4361227005134243
    Empirical Dispersion Energy =           0.0000000000000000
    VV10 Nonlocal Energy =                  0.0000000000000000
    Total Energy =                       -152.6810493631935230



Properties will be evaluated at   0.000000,   0.000000,   0.000000 Bohr

Properties computed using the SCF density matrix

  Nuclear Dipole Moment: (a.u.)
     X:     1.0217      Y:     0.0515      Z:     0.0000

  Electronic Dipole Moment: (a.u.)
     X:     0.2978      Y:    -0.0213      Z:     0.0000

  Dipole Moment: (a.u.)
     X:     1.3195      Y:     0.0302      Z:     0.0000     Total:     1.3198

  Dipole Moment: (Debye)
     X:     3.3538      Y:     0.0767      Z:     0.0000     Total:     3.3547


*** tstop() called on ds1.sherrill.chemistry.gatech.edu at Thu Mar  1 19:43:44 2018
Module time:
	user time   =      92.88 seconds =       1.55 minutes
	system time =     160.72 seconds =       2.68 minutes
	total time  =         23 seconds =       0.38 minutes
Total time:
	user time   =     139.15 seconds =       2.32 minutes
	system time =     161.70 seconds =       2.69 minutes
	total time  =         28 seconds =       0.47 minutes

       N-Body: Complex Energy (fragments = (1, 2), basis = (1, 2):  -152.68104936319349)

   ==> N-Body: Non-Counterpoise Corrected (NoCP)  energies <==

   n-Body     Total Energy [Eh]       I.E. [kcal/mol]      Delta [kcal/mol]
        1     -152.665588703772        0.000000000000        0.000000000000
        2     -152.681049363193       -9.701710663349       -9.701710663349

   => Loading Basis Set <=

    Name: STO-3G
    Role: ORBITAL
    Keyword: BASIS
    atoms 1, 4     entry O          line    81 file /theoryfs2/ds/bakr/gits/psi4/objdir/stage/theoryfs2/ds/bakr/psi4/build_release/share/psi4/basis/sto-3g.gbs 
    atoms 2-3, 5-6 entry H          line    19 file /theoryfs2/ds/bakr/gits/psi4/objdir/stage/theoryfs2/ds/bakr/psi4/build_release/share/psi4/basis/sto-3g.gbs 

	M08-SO: Psi4 vs. Q-Chem...........................................PASSED


   ===> N-Body Interaction Abacus <===
        BSSE Treatment:                     nocp
        Number of 1-body computations:     2
        Number of 2-body computations:     1

   ==> N-Body: Now computing 1-body complexes <==


       N-Body: Computing complex (1/2) with fragments (2,) in the basis of fragments (2,).


*** tstart() called on ds1.sherrill.chemistry.gatech.edu
*** at Thu Mar  1 19:43:44 2018

   => Loading Basis Set <=

    Name: 6-31G
    Role: ORBITAL
    Keyword: BASIS
    atoms 1   entry O          line   117 file /theoryfs2/ds/bakr/gits/psi4/objdir/stage/theoryfs2/ds/bakr/psi4/build_release/share/psi4/basis/6-31g.gbs 
    atoms 2-3 entry H          line    26 file /theoryfs2/ds/bakr/gits/psi4/objdir/stage/theoryfs2/ds/bakr/psi4/build_release/share/psi4/basis/6-31g.gbs 


         ---------------------------------------------------------
                                   SCF
            by Justin Turney, Rob Parrish, Andy Simmonett
                             and Daniel Smith
                              RKS Reference
                        6 Threads,    500 MiB Core
         ---------------------------------------------------------

  ==> Geometry <==

    Molecular point group: cs
    Full point group: Cs

    Geometry (in Angstrom), charge = 0, multiplicity = 1:

       Center              X                  Y                   Z               Mass       
    ------------   -----------------  -----------------  -----------------  -----------------
           O         -0.036906503504     0.054302215660     0.000000000000    15.994914619560
           H          0.292866496496    -0.430907784340    -0.758561000000     1.007825032070
           H          0.292866496496    -0.430907784340     0.758561000000     1.007825032070

  Running in cs symmetry.

  Rotational constants: A =     27.36166  B =     14.53451  C =      9.49223 [cm^-1]
  Rotational constants: A = 820281.89285  B = 435733.58803  C = 284570.03740 [MHz]
  Nuclear repulsion =    9.178038904903588

  Charge       = 0
  Multiplicity = 1
  Electrons    = 10
  Nalpha       = 5
  Nbeta        = 5

  ==> Algorithm <==

  SCF Algorithm Type is DF.
  DIIS enabled.
  MOM disabled.
  Fractional occupation disabled.
  Guess Type is SAD.
  Energy threshold   = 1.00e-09
  Density threshold  = 1.00e-09
  Integral threshold = 0.00e+00

  ==> Primary Basis <==

  Basis Set: 6-31G
    Blend: 6-31G
    Number of shells: 9
    Number of basis function: 13
    Number of Cartesian functions: 13
    Spherical Harmonics?: false
    Max angular momentum: 1

  ==> DFT Potential <==

   => Composite Functional: EDF1 <= 

    EDF1 GGA Exchange-Correlation Functional

    R. D. Adamson, P. M. W. Gill, and J. A. Pople, Chem. Phys. Lett. 284, 6 (1998)

    Deriv               =              1
    GGA                 =           TRUE
    Meta                =          FALSE

    Exchange Hybrid     =          FALSE
    MP2 Hybrid          =          FALSE

   => Exchange Functionals <=

    -0.9228   Slater exchange
    10.4017         Becke 88
    -8.4479         Becke 88

   => Correlation Functionals <=

    1.0000   Lee, Yang & Parr

   => Molecular Quadrature <=

    Radial Scheme       =       TREUTLER
    Pruning Scheme      =           FLAT
    Nuclear Scheme      =       TREUTLER

    BS radius alpha     =              1
    Pruning alpha       =              1
    Radial Points       =            200
    Spherical Points    =            590
    Total Points        =         339888
    Total Blocks        =           2506
    Max Points          =            256
    Max Functions       =             13

   => Loading Basis Set <=

    Name: (6-31G AUX)
    Role: JKFIT
    Keyword: DF_BASIS_SCF
    atoms 1   entry O          line   221 file /theoryfs2/ds/bakr/gits/psi4/objdir/stage/theoryfs2/ds/bakr/psi4/build_release/share/psi4/basis/cc-pvdz-jkfit.gbs 
    atoms 2-3 entry H          line    51 file /theoryfs2/ds/bakr/gits/psi4/objdir/stage/theoryfs2/ds/bakr/psi4/build_release/share/psi4/basis/cc-pvdz-jkfit.gbs 

  ==> Pre-Iterations <==

   -------------------------------------------------------
    Irrep   Nso     Nmo     Nalpha   Nbeta   Ndocc  Nsocc
   -------------------------------------------------------
     A'         9       9       0       0       0       0
     A"         4       4       0       0       0       0
   -------------------------------------------------------
    Total      13      13       5       5       5       0
   -------------------------------------------------------

  ==> Integral Setup <==

  ==> DFJK: Density-Fitted J/K Matrices <==

    J tasked:                  Yes
    K tasked:                   No
    wK tasked:                  No
    OpenMP threads:              6
    Integrals threads:           6
    Memory (MB):               375
    Algorithm:                Core
    Integral Cache:           NONE
    Schwarz Cutoff:          1E-12
    Fitting Condition:       1E-12

   => Auxiliary Basis Set <=

  Basis Set: (6-31G AUX)
    Blend: CC-PVDZ-JKFIT
    Number of shells: 42
    Number of basis function: 131
    Number of Cartesian functions: 131
    Spherical Harmonics?: false
    Max angular momentum: 3

  Minimum eigenvalue in the overlap matrix is 6.8006008193E-02.
  Using Symmetric Orthogonalization.

  SCF Guess: Superposition of Atomic Densities via on-the-fly atomic UHF.

  ==> Iterations <==

                           Total Energy        Delta E     RMS |[F,P]|

   @DF-RKS iter   0:   -76.47688571303347   -7.64769e+01   2.23909e-01 
   @DF-RKS iter   1:   -76.30657761422498    1.70308e-01   8.20924e-02 
   @DF-RKS iter   2:   -76.11374095993347    1.92837e-01   1.27507e-01 DIIS
   @DF-RKS iter   3:   -76.39699936503725   -2.83258e-01   2.12689e-03 DIIS
   @DF-RKS iter   4:   -76.39707971068179   -8.03456e-05   2.30254e-04 DIIS
   @DF-RKS iter   5:   -76.39708067446469   -9.63783e-07   1.39295e-05 DIIS
   @DF-RKS iter   6:   -76.39708067569842   -1.23373e-09   6.41738e-07 DIIS
   @DF-RKS iter   7:   -76.39708067570680   -8.38440e-12   2.68295e-08 DIIS
   @DF-RKS iter   8:   -76.39708067570682   -1.42109e-14   2.70898e-09 DIIS
   @DF-RKS iter   9:   -76.39708067570679    2.84217e-14   1.88237e-11 DIIS

  ==> Post-Iterations <==

    Orbital Energies (a.u.)
    -----------------------

    Doubly Occupied:                                                      

       1Ap   -18.767032     2Ap    -0.930659     1App   -0.476305  
       3Ap    -0.296538     4Ap    -0.229237  

    Virtual:                                                              

       5Ap     0.036429     2App    0.122155     3App    0.764485  
       6Ap     0.818542     7Ap     0.844014     8Ap     0.911963  
       4App    1.017540     9Ap     1.368001  

    Final Occupation by Irrep:
             Ap   App 
    DOCC [     4,    1 ]

  Energy converged.

  @DF-RKS Final Energy:   -76.39708067570679

   => Energetics <=

    Nuclear Repulsion Energy =              9.1780389049035875
    One-Electron Energy =                -123.0413982308668324
    Two-Electron Energy =                  46.8420897018564304
    DFT Exchange-Correlation Energy =      -9.3758110515999729
    Empirical Dispersion Energy =           0.0000000000000000
    VV10 Nonlocal Energy =                  0.0000000000000000
    Total Energy =                        -76.3970806757067891



Properties will be evaluated at   0.000000,   0.000000,   0.000000 Bohr

Properties computed using the SCF density matrix

  Nuclear Dipole Moment: (a.u.)
     X:     0.5489      Y:    -0.8077      Z:     0.0000

  Electronic Dipole Moment: (a.u.)
     X:    -0.0158      Y:     0.0232      Z:     0.0000

  Dipole Moment: (a.u.)
     X:     0.5332      Y:    -0.7845      Z:     0.0000     Total:     0.9485

  Dipole Moment: (Debye)
     X:     1.3551      Y:    -1.9939      Z:     0.0000     Total:     2.4108


*** tstop() called on ds1.sherrill.chemistry.gatech.edu at Thu Mar  1 19:43:45 2018
Module time:
	user time   =       7.71 seconds =       0.13 minutes
	system time =       1.33 seconds =       0.02 minutes
	total time  =          1 seconds =       0.02 minutes
Total time:
	user time   =     147.34 seconds =       2.46 minutes
	system time =     164.14 seconds =       2.74 minutes
	total time  =         29 seconds =       0.48 minutes

       N-Body: Complex Energy (fragments = (2,), basis = (2,):   -76.39708067570679)

       N-Body: Computing complex (2/2) with fragments (1,) in the basis of fragments (1,).


*** tstart() called on ds1.sherrill.chemistry.gatech.edu
*** at Thu Mar  1 19:43:45 2018

   => Loading Basis Set <=

    Name: 6-31G
    Role: ORBITAL
    Keyword: BASIS
    atoms 1   entry O          line   117 file /theoryfs2/ds/bakr/gits/psi4/objdir/stage/theoryfs2/ds/bakr/psi4/build_release/share/psi4/basis/6-31g.gbs 
    atoms 2-3 entry H          line    26 file /theoryfs2/ds/bakr/gits/psi4/objdir/stage/theoryfs2/ds/bakr/psi4/build_release/share/psi4/basis/6-31g.gbs 


         ---------------------------------------------------------
                                   SCF
            by Justin Turney, Rob Parrish, Andy Simmonett
                             and Daniel Smith
                              RKS Reference
                        6 Threads,    500 MiB Core
         ---------------------------------------------------------

  ==> Geometry <==

    Molecular point group: cs
    Full point group: Cs

    Geometry (in Angstrom), charge = 0, multiplicity = 1:

       Center              X                  Y                   Z               Mass       
    ------------   -----------------  -----------------  -----------------  -----------------
           O         -0.031788188689    -0.057762343755     0.000000000000    15.994914619560
           H         -0.415040188689     0.819260656245     0.000000000000     1.007825032070
           H          0.919541811311     0.097469656245     0.000000000000     1.007825032070

  Running in cs symmetry.

  Rotational constants: A =     27.13720  B =     14.53088  C =      9.46354 [cm^-1]
  Rotational constants: A = 813552.74647  B = 435624.91870  C = 283709.72274 [MHz]
  Nuclear repulsion =    9.163830145965930

  Charge       = 0
  Multiplicity = 1
  Electrons    = 10
  Nalpha       = 5
  Nbeta        = 5

  ==> Algorithm <==

  SCF Algorithm Type is DF.
  DIIS enabled.
  MOM disabled.
  Fractional occupation disabled.
  Guess Type is SAD.
  Energy threshold   = 1.00e-09
  Density threshold  = 1.00e-09
  Integral threshold = 0.00e+00

  ==> Primary Basis <==

  Basis Set: 6-31G
    Blend: 6-31G
    Number of shells: 9
    Number of basis function: 13
    Number of Cartesian functions: 13
    Spherical Harmonics?: false
    Max angular momentum: 1

  ==> DFT Potential <==

   => Composite Functional: EDF1 <= 

    EDF1 GGA Exchange-Correlation Functional

    R. D. Adamson, P. M. W. Gill, and J. A. Pople, Chem. Phys. Lett. 284, 6 (1998)

    Deriv               =              1
    GGA                 =           TRUE
    Meta                =          FALSE

    Exchange Hybrid     =          FALSE
    MP2 Hybrid          =          FALSE

   => Exchange Functionals <=

    -0.9228   Slater exchange
    10.4017         Becke 88
    -8.4479         Becke 88

   => Correlation Functionals <=

    1.0000   Lee, Yang & Parr

   => Molecular Quadrature <=

    Radial Scheme       =       TREUTLER
    Pruning Scheme      =           FLAT
    Nuclear Scheme      =       TREUTLER

    BS radius alpha     =              1
    Pruning alpha       =              1
    Radial Points       =            200
    Spherical Points    =            590
    Total Points        =         339883
    Total Blocks        =           2492
    Max Points          =            256
    Max Functions       =             13

   => Loading Basis Set <=

    Name: (6-31G AUX)
    Role: JKFIT
    Keyword: DF_BASIS_SCF
    atoms 1   entry O          line   221 file /theoryfs2/ds/bakr/gits/psi4/objdir/stage/theoryfs2/ds/bakr/psi4/build_release/share/psi4/basis/cc-pvdz-jkfit.gbs 
    atoms 2-3 entry H          line    51 file /theoryfs2/ds/bakr/gits/psi4/objdir/stage/theoryfs2/ds/bakr/psi4/build_release/share/psi4/basis/cc-pvdz-jkfit.gbs 

  ==> Pre-Iterations <==

   -------------------------------------------------------
    Irrep   Nso     Nmo     Nalpha   Nbeta   Ndocc  Nsocc
   -------------------------------------------------------
     A'        11      11       0       0       0       0
     A"         2       2       0       0       0       0
   -------------------------------------------------------
    Total      13      13       5       5       5       0
   -------------------------------------------------------

  ==> Integral Setup <==

  ==> DFJK: Density-Fitted J/K Matrices <==

    J tasked:                  Yes
    K tasked:                   No
    wK tasked:                  No
    OpenMP threads:              6
    Integrals threads:           6
    Memory (MB):               375
    Algorithm:                Core
    Integral Cache:           NONE
    Schwarz Cutoff:          1E-12
    Fitting Condition:       1E-12

   => Auxiliary Basis Set <=

  Basis Set: (6-31G AUX)
    Blend: CC-PVDZ-JKFIT
    Number of shells: 42
    Number of basis function: 131
    Number of Cartesian functions: 131
    Spherical Harmonics?: false
    Max angular momentum: 3

  Minimum eigenvalue in the overlap matrix is 6.8158211762E-02.
  Using Symmetric Orthogonalization.

  SCF Guess: Superposition of Atomic Densities via on-the-fly atomic UHF.

  ==> Iterations <==

                           Total Energy        Delta E     RMS |[F,P]|

   @DF-RKS iter   0:   -76.46273281845363   -7.64627e+01   2.22794e-01 
   @DF-RKS iter   1:   -76.30736322347747    1.55370e-01   9.46697e-02 
   @DF-RKS iter   2:   -76.11572726725912    1.91636e-01   1.38499e-01 DIIS
   @DF-RKS iter   3:   -76.39705654222674   -2.81329e-01   1.89514e-03 DIIS
   @DF-RKS iter   4:   -76.39714356380226   -8.70216e-05   2.49628e-04 DIIS
   @DF-RKS iter   5:   -76.39714500285903   -1.43906e-06   4.90209e-05 DIIS
   @DF-RKS iter   6:   -76.39714505100707   -4.81480e-08   3.46419e-06 DIIS
   @DF-RKS iter   7:   -76.39714505132501   -3.17939e-10   1.45974e-07 DIIS
   @DF-RKS iter   8:   -76.39714505132541   -3.97904e-13   1.34950e-08 DIIS
   @DF-RKS iter   9:   -76.39714505132545   -4.26326e-14   6.98078e-10 DIIS

  ==> Post-Iterations <==

    Orbital Energies (a.u.)
    -----------------------

    Doubly Occupied:                                                      

       1Ap   -18.767461     2Ap    -0.930229     3Ap    -0.475389  
       4Ap    -0.297025     1App   -0.229217  

    Virtual:                                                              

       5Ap     0.035902     6Ap     0.121500     7Ap     0.762675  
       8Ap     0.817582     2App    0.843957     9Ap     0.912511  
      10Ap     1.017037    11Ap     1.368562  

    Final Occupation by Irrep:
             Ap   App 
    DOCC [     4,    1 ]

  Energy converged.

  @DF-RKS Final Energy:   -76.39714505132545

   => Energetics <=

    Nuclear Repulsion Energy =              9.1638301459659299
    One-Electron Energy =                -123.0150101674696259
    Two-Electron Energy =                  46.8283589367221253
    DFT Exchange-Correlation Energy =      -9.3743239665438747
    Empirical Dispersion Energy =           0.0000000000000000
    VV10 Nonlocal Energy =                  0.0000000000000000
    Total Energy =                        -76.3971450513254382



Properties will be evaluated at   0.000000,   0.000000,   0.000000 Bohr

Properties computed using the SCF density matrix

  Nuclear Dipole Moment: (a.u.)
     X:     0.4728      Y:     0.8591      Z:     0.0000

  Electronic Dipole Moment: (a.u.)
     X:    -0.0186      Y:    -0.0254      Z:     0.0000

  Dipole Moment: (a.u.)
     X:     0.4542      Y:     0.8337      Z:     0.0000     Total:     0.9494

  Dipole Moment: (Debye)
     X:     1.1545      Y:     2.1190      Z:     0.0000     Total:     2.4131


*** tstop() called on ds1.sherrill.chemistry.gatech.edu at Thu Mar  1 19:43:47 2018
Module time:
	user time   =       8.40 seconds =       0.14 minutes
	system time =       1.38 seconds =       0.02 minutes
	total time  =          2 seconds =       0.03 minutes
Total time:
	user time   =     155.79 seconds =       2.60 minutes
	system time =     165.52 seconds =       2.76 minutes
	total time  =         31 seconds =       0.52 minutes

       N-Body: Complex Energy (fragments = (1,), basis = (1,):   -76.39714505132545)

   ==> N-Body: Now computing 2-body complexes <==


       N-Body: Computing complex (1/1) with fragments (1, 2) in the basis of fragments (1, 2).


*** tstart() called on ds1.sherrill.chemistry.gatech.edu
*** at Thu Mar  1 19:43:47 2018

   => Loading Basis Set <=

    Name: 6-31G
    Role: ORBITAL
    Keyword: BASIS
    atoms 1, 4     entry O          line   117 file /theoryfs2/ds/bakr/gits/psi4/objdir/stage/theoryfs2/ds/bakr/psi4/build_release/share/psi4/basis/6-31g.gbs 
    atoms 2-3, 5-6 entry H          line    26 file /theoryfs2/ds/bakr/gits/psi4/objdir/stage/theoryfs2/ds/bakr/psi4/build_release/share/psi4/basis/6-31g.gbs 


         ---------------------------------------------------------
                                   SCF
            by Justin Turney, Rob Parrish, Andy Simmonett
                             and Daniel Smith
                              RKS Reference
                        6 Threads,    500 MiB Core
         ---------------------------------------------------------

  ==> Geometry <==

    Molecular point group: cs
    Full point group: Cs

    Geometry (in Angstrom), charge = 0, multiplicity = 1:

       Center              X                  Y                   Z               Mass       
    ------------   -----------------  -----------------  -----------------  -----------------
           O         -1.485163346097    -0.114724564047     0.000000000000    15.994914619560
           H         -1.868415346097     0.762298435953     0.000000000000     1.007825032070
           H         -0.533833346097     0.040507435953     0.000000000000     1.007825032070
           O          1.416468653903     0.111264435953     0.000000000000    15.994914619560
           H          1.746241653903    -0.373945564047    -0.758561000000     1.007825032070
           H          1.746241653903    -0.373945564047     0.758561000000     1.007825032070

  Running in cs symmetry.

  Rotational constants: A =      7.15151  B =      0.21457  C =      0.21447 [cm^-1]
  Rotational constants: A = 214396.91676  B =   6432.69056  C =   6429.61813 [MHz]
  Nuclear repulsion =   36.662847852755299

  Charge       = 0
  Multiplicity = 1
  Electrons    = 20
  Nalpha       = 10
  Nbeta        = 10

  ==> Algorithm <==

  SCF Algorithm Type is DF.
  DIIS enabled.
  MOM disabled.
  Fractional occupation disabled.
  Guess Type is SAD.
  Energy threshold   = 1.00e-09
  Density threshold  = 1.00e-09
  Integral threshold = 0.00e+00

  ==> Primary Basis <==

  Basis Set: 6-31G
    Blend: 6-31G
    Number of shells: 18
    Number of basis function: 26
    Number of Cartesian functions: 26
    Spherical Harmonics?: false
    Max angular momentum: 1

  ==> DFT Potential <==

   => Composite Functional: EDF1 <= 

    EDF1 GGA Exchange-Correlation Functional

    R. D. Adamson, P. M. W. Gill, and J. A. Pople, Chem. Phys. Lett. 284, 6 (1998)

    Deriv               =              1
    GGA                 =           TRUE
    Meta                =          FALSE

    Exchange Hybrid     =          FALSE
    MP2 Hybrid          =          FALSE

   => Exchange Functionals <=

    -0.9228   Slater exchange
    10.4017         Becke 88
    -8.4479         Becke 88

   => Correlation Functionals <=

    1.0000   Lee, Yang & Parr

   => Molecular Quadrature <=

    Radial Scheme       =       TREUTLER
    Pruning Scheme      =           FLAT
    Nuclear Scheme      =       TREUTLER

    BS radius alpha     =              1
    Pruning alpha       =              1
    Radial Points       =            200
    Spherical Points    =            590
    Total Points        =         684386
    Total Blocks        =           4833
    Max Points          =            256
    Max Functions       =             25

   => Loading Basis Set <=

    Name: (6-31G AUX)
    Role: JKFIT
    Keyword: DF_BASIS_SCF
    atoms 1, 4     entry O          line   221 file /theoryfs2/ds/bakr/gits/psi4/objdir/stage/theoryfs2/ds/bakr/psi4/build_release/share/psi4/basis/cc-pvdz-jkfit.gbs 
    atoms 2-3, 5-6 entry H          line    51 file /theoryfs2/ds/bakr/gits/psi4/objdir/stage/theoryfs2/ds/bakr/psi4/build_release/share/psi4/basis/cc-pvdz-jkfit.gbs 

  ==> Pre-Iterations <==

   -------------------------------------------------------
    Irrep   Nso     Nmo     Nalpha   Nbeta   Ndocc  Nsocc
   -------------------------------------------------------
     A'        20      20       0       0       0       0
     A"         6       6       0       0       0       0
   -------------------------------------------------------
    Total      26      26      10      10      10       0
   -------------------------------------------------------

  ==> Integral Setup <==

  ==> DFJK: Density-Fitted J/K Matrices <==

    J tasked:                  Yes
    K tasked:                   No
    wK tasked:                  No
    OpenMP threads:              6
    Integrals threads:           6
    Memory (MB):               375
    Algorithm:                Core
    Integral Cache:           NONE
    Schwarz Cutoff:          1E-12
    Fitting Condition:       1E-12

   => Auxiliary Basis Set <=

  Basis Set: (6-31G AUX)
    Blend: CC-PVDZ-JKFIT
    Number of shells: 84
    Number of basis function: 262
    Number of Cartesian functions: 262
    Spherical Harmonics?: false
    Max angular momentum: 3

  Minimum eigenvalue in the overlap matrix is 4.5598313267E-02.
  Using Symmetric Orthogonalization.

  SCF Guess: Superposition of Atomic Densities via on-the-fly atomic UHF.

  ==> Iterations <==

                           Total Energy        Delta E     RMS |[F,P]|

   @DF-RKS iter   0:  -152.84026619541982   -1.52840e+02   1.04969e-01 
   @DF-RKS iter   1:  -152.64904681260995    1.91219e-01   3.73707e-02 
   @DF-RKS iter   2:  -152.35179043031877    2.97256e-01   5.19070e-02 DIIS
   @DF-RKS iter   3:  -152.80525062428867   -4.53460e-01   1.58979e-03 DIIS
   @DF-RKS iter   4:  -152.80515944592125    9.11784e-05   1.63452e-03 DIIS
   @DF-RKS iter   5:  -152.80549030185301   -3.30856e-04   5.64680e-05 DIIS
   @DF-RKS iter   6:  -152.80549079918433   -4.97331e-07   6.98468e-06 DIIS
   @DF-RKS iter   7:  -152.80549080823522   -9.05089e-09   1.03877e-06 DIIS
   @DF-RKS iter   8:  -152.80549080842266   -1.87441e-10   8.01225e-08 DIIS
   @DF-RKS iter   9:  -152.80549080842388   -1.22213e-12   3.80647e-09 DIIS
   @DF-RKS iter  10:  -152.80549080842391   -2.84217e-14   3.62147e-10 DIIS

  ==> Post-Iterations <==

    Orbital Energies (a.u.)
    -----------------------

    Doubly Occupied:                                                      

       1Ap   -18.804705     2Ap   -18.725890     3Ap    -0.965883  
       4Ap    -0.890401     1App   -0.509269     5Ap    -0.439707  
       6Ap    -0.340021     7Ap    -0.274864     8Ap    -0.253131  
       2App   -0.194357  

    Virtual:                                                              

       9Ap     0.012007    10Ap     0.090095     3App    0.100337  
      11Ap     0.222310     4App    0.732107    12Ap     0.782060  
      13Ap     0.803643    14Ap     0.854162     5App    0.878464  
      15Ap     0.885973    16Ap     0.949859    17Ap     0.961315  
       6App    0.986561    18Ap     1.102072    19Ap     1.322671  
      20Ap     1.678052  

    Final Occupation by Irrep:
             Ap   App 
    DOCC [     8,    2 ]

  Energy converged.

  @DF-RKS Final Energy:  -152.80549080842391

   => Energetics <=

    Nuclear Repulsion Energy =             36.6628478527552986
    One-Electron Energy =                -282.7250531523848167
    Two-Electron Energy =                 112.0096628781684700
    DFT Exchange-Correlation Energy =     -18.7529483869628777
    Empirical Dispersion Energy =           0.0000000000000000
    VV10 Nonlocal Energy =                  0.0000000000000000
    Total Energy =                       -152.8054908084239401



Properties will be evaluated at   0.000000,   0.000000,   0.000000 Bohr

Properties computed using the SCF density matrix

  Nuclear Dipole Moment: (a.u.)
     X:     1.0217      Y:     0.0515      Z:     0.0000

  Electronic Dipole Moment: (a.u.)
     X:     0.2627      Y:    -0.0232      Z:     0.0000

  Dipole Moment: (a.u.)
     X:     1.2845      Y:     0.0282      Z:     0.0000     Total:     1.2848

  Dipole Moment: (Debye)
     X:     3.2648      Y:     0.0717      Z:     0.0000     Total:     3.2655


*** tstop() called on ds1.sherrill.chemistry.gatech.edu at Thu Mar  1 19:43:58 2018
Module time:
	user time   =      47.61 seconds =       0.79 minutes
	system time =      80.57 seconds =       1.34 minutes
	total time  =         11 seconds =       0.18 minutes
Total time:
	user time   =     203.45 seconds =       3.39 minutes
	system time =     246.09 seconds =       4.10 minutes
	total time  =         42 seconds =       0.70 minutes

       N-Body: Complex Energy (fragments = (1, 2), basis = (1, 2):  -152.80549080842391)

   ==> N-Body: Non-Counterpoise Corrected (NoCP)  energies <==

   n-Body     Total Energy [Eh]       I.E. [kcal/mol]      Delta [kcal/mol]
        1     -152.794225727032        0.000000000000        0.000000000000
        2     -152.805490808424       -7.068945591537       -7.068945591537

   => Loading Basis Set <=

    Name: STO-3G
    Role: ORBITAL
    Keyword: BASIS
    atoms 1, 4     entry O          line    81 file /theoryfs2/ds/bakr/gits/psi4/objdir/stage/theoryfs2/ds/bakr/psi4/build_release/share/psi4/basis/sto-3g.gbs 
    atoms 2-3, 5-6 entry H          line    19 file /theoryfs2/ds/bakr/gits/psi4/objdir/stage/theoryfs2/ds/bakr/psi4/build_release/share/psi4/basis/sto-3g.gbs 

	EDF1: Psi4 vs. Q-Chem.............................................PASSED


   ===> N-Body Interaction Abacus <===
        BSSE Treatment:                     nocp
        Number of 1-body computations:     2
        Number of 2-body computations:     1

   ==> N-Body: Now computing 1-body complexes <==


       N-Body: Computing complex (1/2) with fragments (2,) in the basis of fragments (2,).


*** tstart() called on ds1.sherrill.chemistry.gatech.edu
*** at Thu Mar  1 19:43:58 2018

   => Loading Basis Set <=

    Name: 6-31G
    Role: ORBITAL
    Keyword: BASIS
    atoms 1   entry O          line   117 file /theoryfs2/ds/bakr/gits/psi4/objdir/stage/theoryfs2/ds/bakr/psi4/build_release/share/psi4/basis/6-31g.gbs 
    atoms 2-3 entry H          line    26 file /theoryfs2/ds/bakr/gits/psi4/objdir/stage/theoryfs2/ds/bakr/psi4/build_release/share/psi4/basis/6-31g.gbs 


         ---------------------------------------------------------
                                   SCF
            by Justin Turney, Rob Parrish, Andy Simmonett
                             and Daniel Smith
                              RKS Reference
                        6 Threads,    500 MiB Core
         ---------------------------------------------------------

  ==> Geometry <==

    Molecular point group: cs
    Full point group: Cs

    Geometry (in Angstrom), charge = 0, multiplicity = 1:

       Center              X                  Y                   Z               Mass       
    ------------   -----------------  -----------------  -----------------  -----------------
           O         -0.036906503504     0.054302215660     0.000000000000    15.994914619560
           H          0.292866496496    -0.430907784340    -0.758561000000     1.007825032070
           H          0.292866496496    -0.430907784340     0.758561000000     1.007825032070

  Running in cs symmetry.

  Rotational constants: A =     27.36166  B =     14.53451  C =      9.49223 [cm^-1]
  Rotational constants: A = 820281.89285  B = 435733.58803  C = 284570.03740 [MHz]
  Nuclear repulsion =    9.178038904903588

  Charge       = 0
  Multiplicity = 1
  Electrons    = 10
  Nalpha       = 5
  Nbeta        = 5

  ==> Algorithm <==

  SCF Algorithm Type is DF.
  DIIS enabled.
  MOM disabled.
  Fractional occupation disabled.
  Guess Type is SAD.
  Energy threshold   = 1.00e-09
  Density threshold  = 1.00e-09
  Integral threshold = 0.00e+00

  ==> Primary Basis <==

  Basis Set: 6-31G
    Blend: 6-31G
    Number of shells: 9
    Number of basis function: 13
    Number of Cartesian functions: 13
    Spherical Harmonics?: false
    Max angular momentum: 1

  ==> DFT Potential <==

   => Composite Functional: MPW1B95 <= 

    MPW1B95 Hyb-GGA Exchange-Correlation Functional

    Y. Zhao and D. G. Truhlar, J. Phys. Chem. A 108, 6908 (2004)

    Deriv               =              1
    GGA                 =           TRUE
    Meta                =           TRUE

    Exchange Hybrid     =           TRUE
    MP2 Hybrid          =          FALSE

   => Exchange Functionals <=

    0.6900   mPW91 of Adamo & Barone

   => Exact (HF) Exchange <=

    0.3100               HF 

   => Correlation Functionals <=

    1.0000   Becke correlation 95

   => Molecular Quadrature <=

    Radial Scheme       =       TREUTLER
    Pruning Scheme      =           FLAT
    Nuclear Scheme      =       TREUTLER

    BS radius alpha     =              1
    Pruning alpha       =              1
    Radial Points       =            200
    Spherical Points    =            590
    Total Points        =         339888
    Total Blocks        =           2506
    Max Points          =            256
    Max Functions       =             13

   => Loading Basis Set <=

    Name: (6-31G AUX)
    Role: JKFIT
    Keyword: DF_BASIS_SCF
    atoms 1   entry O          line   221 file /theoryfs2/ds/bakr/gits/psi4/objdir/stage/theoryfs2/ds/bakr/psi4/build_release/share/psi4/basis/cc-pvdz-jkfit.gbs 
    atoms 2-3 entry H          line    51 file /theoryfs2/ds/bakr/gits/psi4/objdir/stage/theoryfs2/ds/bakr/psi4/build_release/share/psi4/basis/cc-pvdz-jkfit.gbs 

  ==> Pre-Iterations <==

   -------------------------------------------------------
    Irrep   Nso     Nmo     Nalpha   Nbeta   Ndocc  Nsocc
   -------------------------------------------------------
     A'         9       9       0       0       0       0
     A"         4       4       0       0       0       0
   -------------------------------------------------------
    Total      13      13       5       5       5       0
   -------------------------------------------------------

  ==> Integral Setup <==

  ==> DFJK: Density-Fitted J/K Matrices <==

    J tasked:                  Yes
    K tasked:                  Yes
    wK tasked:                  No
    OpenMP threads:              6
    Integrals threads:           6
    Memory (MB):               375
    Algorithm:                Core
    Integral Cache:           NONE
    Schwarz Cutoff:          1E-12
    Fitting Condition:       1E-12

   => Auxiliary Basis Set <=

  Basis Set: (6-31G AUX)
    Blend: CC-PVDZ-JKFIT
    Number of shells: 42
    Number of basis function: 131
    Number of Cartesian functions: 131
    Spherical Harmonics?: false
    Max angular momentum: 3

  Minimum eigenvalue in the overlap matrix is 6.8006008193E-02.
  Using Symmetric Orthogonalization.

  SCF Guess: Superposition of Atomic Densities via on-the-fly atomic UHF.

  ==> Iterations <==

                           Total Energy        Delta E     RMS |[F,P]|

   @DF-RKS iter   0:   -76.44069350763993   -7.64407e+01   3.45937e-01 
   @DF-RKS iter   1:   -76.27563173480138    1.65062e-01   7.87645e-02 
   @DF-RKS iter   2:   -76.24292134404477    3.27104e-02   9.88145e-02 DIIS
   @DF-RKS iter   3:   -76.35092917134642   -1.08008e-01   1.20973e-03 DIIS
   @DF-RKS iter   4:   -76.35095048338172   -2.13120e-05   1.21422e-04 DIIS
   @DF-RKS iter   5:   -76.35095097153642   -4.88155e-07   1.38880e-05 DIIS
   @DF-RKS iter   6:   -76.35095097520488   -3.66846e-09   2.80169e-06 DIIS
   @DF-RKS iter   7:   -76.35095097527925   -7.43654e-11   6.47340e-08 DIIS
   @DF-RKS iter   8:   -76.35095097527939   -1.42109e-13   3.96576e-09 DIIS
   @DF-RKS iter   9:   -76.35095097527929    9.94760e-14   1.25444e-10 DIIS

  ==> Post-Iterations <==

    Orbital Energies (a.u.)
    -----------------------

    Doubly Occupied:                                                      

       1Ap   -19.323979     2Ap    -1.058994     1App   -0.552103  
       3Ap    -0.381425     4Ap    -0.317692  

    Virtual:                                                              

       5Ap     0.083007     2App    0.172998     3App    0.842837  
       6Ap     0.915469     7Ap     0.928621     8Ap     0.991773  
       4App    1.109105     9Ap     1.453277  

    Final Occupation by Irrep:
             Ap   App 
    DOCC [     4,    1 ]

  Energy converged.

  @DF-RKS Final Energy:   -76.35095097527929

   => Energetics <=

    Nuclear Repulsion Energy =              9.1780389049035875
    One-Electron Energy =                -123.0517925901969534
    Two-Electron Energy =                  44.0746922329909552
    DFT Exchange-Correlation Energy =      -6.5518895229768779
    Empirical Dispersion Energy =           0.0000000000000000
    VV10 Nonlocal Energy =                  0.0000000000000000
    Total Energy =                        -76.3509509752792894



Properties will be evaluated at   0.000000,   0.000000,   0.000000 Bohr

Properties computed using the SCF density matrix

  Nuclear Dipole Moment: (a.u.)
     X:     0.5489      Y:    -0.8077      Z:     0.0000

  Electronic Dipole Moment: (a.u.)
     X:     0.0052      Y:    -0.0077      Z:     0.0000

  Dipole Moment: (a.u.)
     X:     0.5541      Y:    -0.8153      Z:     0.0000     Total:     0.9858

  Dipole Moment: (Debye)
     X:     1.4085      Y:    -2.0723      Z:     0.0000     Total:     2.5057


*** tstop() called on ds1.sherrill.chemistry.gatech.edu at Thu Mar  1 19:44:01 2018
Module time:
	user time   =      18.56 seconds =       0.31 minutes
	system time =       7.16 seconds =       0.12 minutes
	total time  =          3 seconds =       0.05 minutes
Total time:
	user time   =     222.52 seconds =       3.71 minutes
	system time =     254.38 seconds =       4.24 minutes
	total time  =         45 seconds =       0.75 minutes

       N-Body: Complex Energy (fragments = (2,), basis = (2,):   -76.35095097527929)

       N-Body: Computing complex (2/2) with fragments (1,) in the basis of fragments (1,).


*** tstart() called on ds1.sherrill.chemistry.gatech.edu
*** at Thu Mar  1 19:44:01 2018

   => Loading Basis Set <=

    Name: 6-31G
    Role: ORBITAL
    Keyword: BASIS
    atoms 1   entry O          line   117 file /theoryfs2/ds/bakr/gits/psi4/objdir/stage/theoryfs2/ds/bakr/psi4/build_release/share/psi4/basis/6-31g.gbs 
    atoms 2-3 entry H          line    26 file /theoryfs2/ds/bakr/gits/psi4/objdir/stage/theoryfs2/ds/bakr/psi4/build_release/share/psi4/basis/6-31g.gbs 


         ---------------------------------------------------------
                                   SCF
            by Justin Turney, Rob Parrish, Andy Simmonett
                             and Daniel Smith
                              RKS Reference
                        6 Threads,    500 MiB Core
         ---------------------------------------------------------

  ==> Geometry <==

    Molecular point group: cs
    Full point group: Cs

    Geometry (in Angstrom), charge = 0, multiplicity = 1:

       Center              X                  Y                   Z               Mass       
    ------------   -----------------  -----------------  -----------------  -----------------
           O         -0.031788188689    -0.057762343755     0.000000000000    15.994914619560
           H         -0.415040188689     0.819260656245     0.000000000000     1.007825032070
           H          0.919541811311     0.097469656245     0.000000000000     1.007825032070

  Running in cs symmetry.

  Rotational constants: A =     27.13720  B =     14.53088  C =      9.46354 [cm^-1]
  Rotational constants: A = 813552.74647  B = 435624.91870  C = 283709.72274 [MHz]
  Nuclear repulsion =    9.163830145965930

  Charge       = 0
  Multiplicity = 1
  Electrons    = 10
  Nalpha       = 5
  Nbeta        = 5

  ==> Algorithm <==

  SCF Algorithm Type is DF.
  DIIS enabled.
  MOM disabled.
  Fractional occupation disabled.
  Guess Type is SAD.
  Energy threshold   = 1.00e-09
  Density threshold  = 1.00e-09
  Integral threshold = 0.00e+00

  ==> Primary Basis <==

  Basis Set: 6-31G
    Blend: 6-31G
    Number of shells: 9
    Number of basis function: 13
    Number of Cartesian functions: 13
    Spherical Harmonics?: false
    Max angular momentum: 1

  ==> DFT Potential <==

   => Composite Functional: MPW1B95 <= 

    MPW1B95 Hyb-GGA Exchange-Correlation Functional

    Y. Zhao and D. G. Truhlar, J. Phys. Chem. A 108, 6908 (2004)

    Deriv               =              1
    GGA                 =           TRUE
    Meta                =           TRUE

    Exchange Hybrid     =           TRUE
    MP2 Hybrid          =          FALSE

   => Exchange Functionals <=

    0.6900   mPW91 of Adamo & Barone

   => Exact (HF) Exchange <=

    0.3100               HF 

   => Correlation Functionals <=

    1.0000   Becke correlation 95

   => Molecular Quadrature <=

    Radial Scheme       =       TREUTLER
    Pruning Scheme      =           FLAT
    Nuclear Scheme      =       TREUTLER

    BS radius alpha     =              1
    Pruning alpha       =              1
    Radial Points       =            200
    Spherical Points    =            590
    Total Points        =         339883
    Total Blocks        =           2492
    Max Points          =            256
    Max Functions       =             13

   => Loading Basis Set <=

    Name: (6-31G AUX)
    Role: JKFIT
    Keyword: DF_BASIS_SCF
    atoms 1   entry O          line   221 file /theoryfs2/ds/bakr/gits/psi4/objdir/stage/theoryfs2/ds/bakr/psi4/build_release/share/psi4/basis/cc-pvdz-jkfit.gbs 
    atoms 2-3 entry H          line    51 file /theoryfs2/ds/bakr/gits/psi4/objdir/stage/theoryfs2/ds/bakr/psi4/build_release/share/psi4/basis/cc-pvdz-jkfit.gbs 

  ==> Pre-Iterations <==

   -------------------------------------------------------
    Irrep   Nso     Nmo     Nalpha   Nbeta   Ndocc  Nsocc
   -------------------------------------------------------
     A'        11      11       0       0       0       0
     A"         2       2       0       0       0       0
   -------------------------------------------------------
    Total      13      13       5       5       5       0
   -------------------------------------------------------

  ==> Integral Setup <==

  ==> DFJK: Density-Fitted J/K Matrices <==

    J tasked:                  Yes
    K tasked:                  Yes
    wK tasked:                  No
    OpenMP threads:              6
    Integrals threads:           6
    Memory (MB):               375
    Algorithm:                Core
    Integral Cache:           NONE
    Schwarz Cutoff:          1E-12
    Fitting Condition:       1E-12

   => Auxiliary Basis Set <=

  Basis Set: (6-31G AUX)
    Blend: CC-PVDZ-JKFIT
    Number of shells: 42
    Number of basis function: 131
    Number of Cartesian functions: 131
    Spherical Harmonics?: false
    Max angular momentum: 3

  Minimum eigenvalue in the overlap matrix is 6.8158211762E-02.
  Using Symmetric Orthogonalization.

  SCF Guess: Superposition of Atomic Densities via on-the-fly atomic UHF.

  ==> Iterations <==

                           Total Energy        Delta E     RMS |[F,P]|

   @DF-RKS iter   0:   -76.42437170493677   -7.64244e+01   3.09363e-01 
   @DF-RKS iter   1:   -76.27729883400400    1.47073e-01   8.34385e-02 
   @DF-RKS iter   2:   -76.24564413218566    3.16547e-02   1.04795e-01 DIIS
   @DF-RKS iter   3:   -76.35091647561637   -1.05272e-01   1.17784e-03 DIIS
   @DF-RKS iter   4:   -76.35093851323214   -2.20376e-05   1.64089e-04 DIIS
   @DF-RKS iter   5:   -76.35093904722360   -5.33991e-07   1.83806e-05 DIIS
   @DF-RKS iter   6:   -76.35093905837078   -1.11472e-08   2.39813e-06 DIIS
   @DF-RKS iter   7:   -76.35093905854649   -1.75703e-10   4.02214e-07 DIIS
   @DF-RKS iter   8:   -76.35093905854873   -2.24532e-12   1.17730e-08 DIIS
   @DF-RKS iter   9:   -76.35093905854866    7.10543e-14   7.60122e-10 DIIS

  ==> Post-Iterations <==

    Orbital Energies (a.u.)
    -----------------------

    Doubly Occupied:                                                      

       1Ap   -19.324416     2Ap    -1.058528     3Ap    -0.551087  
       4Ap    -0.381813     1App   -0.317680  

    Virtual:                                                              

       5Ap     0.082504     6Ap     0.172399     7Ap     0.840973  
       8Ap     0.914421     2App    0.928558     9Ap     0.992344  
      10Ap     1.108570    11Ap     1.453844  

    Final Occupation by Irrep:
             Ap   App 
    DOCC [     4,    1 ]

  Energy converged.

  @DF-RKS Final Energy:   -76.35093905854866

   => Energetics <=

    Nuclear Repulsion Energy =              9.1638301459659299
    One-Electron Energy =                -123.0254204992238840
    Two-Electron Energy =                  44.0614973854513110
    DFT Exchange-Correlation Energy =      -6.5508460907420272
    Empirical Dispersion Energy =           0.0000000000000000
    VV10 Nonlocal Energy =                  0.0000000000000000
    Total Energy =                        -76.3509390585486756



Properties will be evaluated at   0.000000,   0.000000,   0.000000 Bohr

Properties computed using the SCF density matrix

  Nuclear Dipole Moment: (a.u.)
     X:     0.4728      Y:     0.8591      Z:     0.0000

  Electronic Dipole Moment: (a.u.)
     X:    -0.0003      Y:     0.0074      Z:     0.0000

  Dipole Moment: (a.u.)
     X:     0.4725      Y:     0.8666      Z:     0.0000     Total:     0.9870

  Dipole Moment: (Debye)
     X:     1.2011      Y:     2.2026      Z:     0.0000     Total:     2.5088


*** tstop() called on ds1.sherrill.chemistry.gatech.edu at Thu Mar  1 19:44:04 2018
Module time:
	user time   =      19.47 seconds =       0.32 minutes
	system time =       7.98 seconds =       0.13 minutes
	total time  =          3 seconds =       0.05 minutes
Total time:
	user time   =     242.08 seconds =       4.03 minutes
	system time =     262.40 seconds =       4.37 minutes
	total time  =         48 seconds =       0.80 minutes

       N-Body: Complex Energy (fragments = (1,), basis = (1,):   -76.35093905854866)

   ==> N-Body: Now computing 2-body complexes <==


       N-Body: Computing complex (1/1) with fragments (1, 2) in the basis of fragments (1, 2).


[...]
    VV10 Nonlocal Energy =                  0.0000000000000000
    Total Energy =                        -76.3633815002272485



Properties will be evaluated at   0.000000,   0.000000,   0.000000 Bohr

Properties computed using the SCF density matrix

  Nuclear Dipole Moment: (a.u.)
     X:     0.5489      Y:    -0.8077      Z:     0.0000

  Electronic Dipole Moment: (a.u.)
     X:     0.0121      Y:    -0.0179      Z:     0.0000

  Dipole Moment: (a.u.)
     X:     0.5611      Y:    -0.8255      Z:     0.0000     Total:     0.9982

  Dipole Moment: (Debye)
     X:     1.4261      Y:    -2.0983      Z:     0.0000     Total:     2.5371


*** tstop() called on ds1.sherrill.chemistry.gatech.edu at Thu Mar  1 20:14:51 2018
Module time:
	user time   =      20.44 seconds =       0.34 minutes
	system time =       8.17 seconds =       0.14 minutes
	total time  =          3 seconds =       0.05 minutes
Total time:
	user time   =    8669.53 seconds =     144.49 minutes
	system time =   11503.88 seconds =     191.73 minutes
	total time  =       1895 seconds =      31.58 minutes

       N-Body: Complex Energy (fragments = (2,), basis = (2,):   -76.36338150022723)

       N-Body: Computing complex (2/2) with fragments (1,) in the basis of fragments (1,).


*** tstart() called on ds1.sherrill.chemistry.gatech.edu
*** at Thu Mar  1 20:14:51 2018

   => Loading Basis Set <=

    Name: 6-31G
    Role: ORBITAL
    Keyword: BASIS
    atoms 1   entry O          line   117 file /theoryfs2/ds/bakr/gits/psi4/objdir/stage/theoryfs2/ds/bakr/psi4/build_release/share/psi4/basis/6-31g.gbs 
    atoms 2-3 entry H          line    26 file /theoryfs2/ds/bakr/gits/psi4/objdir/stage/theoryfs2/ds/bakr/psi4/build_release/share/psi4/basis/6-31g.gbs 


         ---------------------------------------------------------
                                   SCF
            by Justin Turney, Rob Parrish, Andy Simmonett
                             and Daniel Smith
                              RKS Reference
                        6 Threads,    500 MiB Core
         ---------------------------------------------------------

  ==> Geometry <==

    Molecular point group: cs
    Full point group: Cs

    Geometry (in Angstrom), charge = 0, multiplicity = 1:

       Center              X                  Y                   Z               Mass       
    ------------   -----------------  -----------------  -----------------  -----------------
           O         -0.031788188689    -0.057762343755     0.000000000000    15.994914619560
           H         -0.415040188689     0.819260656245     0.000000000000     1.007825032070
           H          0.919541811311     0.097469656245     0.000000000000     1.007825032070

  Running in cs symmetry.

  Rotational constants: A =     27.13720  B =     14.53088  C =      9.46354 [cm^-1]
  Rotational constants: A = 813552.74647  B = 435624.91870  C = 283709.72274 [MHz]
  Nuclear repulsion =    9.163830145965930

  Charge       = 0
  Multiplicity = 1
  Electrons    = 10
  Nalpha       = 5
  Nbeta        = 5

  ==> Algorithm <==

  SCF Algorithm Type is DF.
  DIIS enabled.
  MOM disabled.
  Fractional occupation disabled.
  Guess Type is SAD.
  Energy threshold   = 1.00e-09
  Density threshold  = 1.00e-09
  Integral threshold = 0.00e+00

  ==> Primary Basis <==

  Basis Set: 6-31G
    Blend: 6-31G
    Number of shells: 9
    Number of basis function: 13
    Number of Cartesian functions: 13
    Spherical Harmonics?: false
    Max angular momentum: 1

  ==> DFT Potential <==

   => Composite Functional: WB97X <= 

    WB97X Hyb-GGA Exchange-Correlation Functional

    J.-D. Chai and M. Head-Gordon, J. Chem. Phys. 128, 084106 (2008)

    Deriv               =              1
    GGA                 =           TRUE
    Meta                =          FALSE

    Exchange Hybrid     =           TRUE
    MP2 Hybrid          =          FALSE

   => Exchange-Correlation Functionals <=

    1.0000   wB97X range-separated functional

   => Exact (HF) Exchange <=

    0.8423            HF,LR [omega = 0.3000]
    0.1577               HF 

   => Molecular Quadrature <=

    Radial Scheme       =       TREUTLER
    Pruning Scheme      =           FLAT
    Nuclear Scheme      =       TREUTLER

    BS radius alpha     =              1
    Pruning alpha       =              1
    Radial Points       =            200
    Spherical Points    =            590
    Total Points        =         339883
    Total Blocks        =           2492
    Max Points          =            256
    Max Functions       =             13

   => -D3ZERO: Empirical Dispersion <=

    Grimme's -D3 (zero-damping) Dispersion Correction
    Grimme S.; Antony J.; Ehrlich S.; Krieg H. (2010), J. Chem. Phys., 132: 154104

        S6 =   1.000000E+00
        S8 =   1.000000E+00
       SR6 =   1.281000E+00
       RS8 =   1.094000E+00
    ALPHA6 =   1.400000E+01

   => Loading Basis Set <=

    Name: (6-31G AUX)
    Role: JKFIT
    Keyword: DF_BASIS_SCF
    atoms 1   entry O          line   221 file /theoryfs2/ds/bakr/gits/psi4/objdir/stage/theoryfs2/ds/bakr/psi4/build_release/share/psi4/basis/cc-pvdz-jkfit.gbs 
    atoms 2-3 entry H          line    51 file /theoryfs2/ds/bakr/gits/psi4/objdir/stage/theoryfs2/ds/bakr/psi4/build_release/share/psi4/basis/cc-pvdz-jkfit.gbs 

  ==> Pre-Iterations <==

   -------------------------------------------------------
    Irrep   Nso     Nmo     Nalpha   Nbeta   Ndocc  Nsocc
   -------------------------------------------------------
     A'        11      11       0       0       0       0
     A"         2       2       0       0       0       0
   -------------------------------------------------------
    Total      13      13       5       5       5       0
   -------------------------------------------------------

  ==> Integral Setup <==

  ==> DFJK: Density-Fitted J/K Matrices <==

    J tasked:                  Yes
    K tasked:                  Yes
    wK tasked:                 Yes
    Omega:               3.000E-01
    OpenMP threads:              6
    Integrals threads:           6
    Memory (MB):               375
    Algorithm:                Core
    Integral Cache:           NONE
    Schwarz Cutoff:          1E-12
    Fitting Condition:       1E-12

   => Auxiliary Basis Set <=

  Basis Set: (6-31G AUX)
    Blend: CC-PVDZ-JKFIT
    Number of shells: 42
    Number of basis function: 131
    Number of Cartesian functions: 131
    Spherical Harmonics?: false
    Max angular momentum: 3

  Minimum eigenvalue in the overlap matrix is 6.8158211762E-02.
  Using Symmetric Orthogonalization.

  SCF Guess: Superposition of Atomic Densities via on-the-fly atomic UHF.

  ==> Iterations <==

                           Total Energy        Delta E     RMS |[F,P]|

   @DF-RKS iter   0:   -76.42076065270747   -7.64208e+01   3.06983e-01 
   @DF-RKS iter   1:   -76.29445787507636    1.26303e-01   1.03287e-01 
   @DF-RKS iter   2:   -76.31517785930804   -2.07200e-02   7.30004e-02 DIIS
   @DF-RKS iter   3:   -76.36327839020083   -4.81005e-02   1.83835e-03 DIIS
   @DF-RKS iter   4:   -76.36337049825660   -9.21081e-05   2.94112e-04 DIIS
   @DF-RKS iter   5:   -76.36337226048462   -1.76223e-06   3.87563e-05 DIIS
   @DF-RKS iter   6:   -76.36337230850171   -4.80171e-08   3.15749e-06 DIIS
   @DF-RKS iter   7:   -76.36337230905031   -5.48596e-10   4.24598e-07 DIIS
   @DF-RKS iter   8:   -76.36337230905563   -5.32907e-12   3.14140e-08 DIIS
   @DF-RKS iter   9:   -76.36337230905571   -7.10543e-14   3.67376e-09 DIIS
   @DF-RKS iter  10:   -76.36337230905578   -7.10543e-14   3.22188e-10 DIIS

  ==> Post-Iterations <==

    Orbital Energies (a.u.)
    -----------------------

    Doubly Occupied:                                                      

       1Ap   -19.200985     2Ap    -1.142131     3Ap    -0.638503  
       4Ap    -0.465787     1App   -0.401651  

    Virtual:                                                              

       5Ap     0.165633     6Ap     0.258809     7Ap     0.926878  
       8Ap     0.999886     2App    1.008009     9Ap     1.072860  
      10Ap     1.188409    11Ap     1.538143  

    Final Occupation by Irrep:
             Ap   App 
    DOCC [     4,    1 ]

  Energy converged.

  @DF-RKS Final Energy:   -76.36337230905578

   => Energetics <=

    Nuclear Repulsion Energy =              9.1638301459659299
    One-Electron Energy =                -122.9822158932035450
    Two-Electron Energy =                  44.0366693396061137
    DFT Exchange-Correlation Energy =      -6.5816546214242777
    Empirical Dispersion Energy =          -0.0000012800000000
    VV10 Nonlocal Energy =                  0.0000000000000000
    Total Energy =                        -76.3633723090557908



Properties will be evaluated at   0.000000,   0.000000,   0.000000 Bohr

Properties computed using the SCF density matrix

  Nuclear Dipole Moment: (a.u.)
     X:     0.4728      Y:     0.8591      Z:     0.0000

  Electronic Dipole Moment: (a.u.)
     X:     0.0057      Y:     0.0183      Z:     0.0000

  Dipole Moment: (a.u.)
     X:     0.4785      Y:     0.8774      Z:     0.0000     Total:     0.9994

  Dipole Moment: (Debye)
     X:     1.2163      Y:     2.2302      Z:     0.0000     Total:     2.5403


*** tstop() called on ds1.sherrill.chemistry.gatech.edu at Thu Mar  1 20:14:54 2018
Module time:
	user time   =      21.34 seconds =       0.36 minutes
	system time =       8.86 seconds =       0.15 minutes
	total time  =          3 seconds =       0.05 minutes
Total time:
	user time   =    8690.94 seconds =     144.85 minutes
	system time =   11512.80 seconds =     191.88 minutes
	total time  =       1898 seconds =      31.63 minutes

       N-Body: Complex Energy (fragments = (1,), basis = (1,):   -76.36337230905578)

   ==> N-Body: Now computing 2-body complexes <==


       N-Body: Computing complex (1/1) with fragments (1, 2) in the basis of fragments (1, 2).


*** tstart() called on ds1.sherrill.chemistry.gatech.edu
*** at Thu Mar  1 20:14:54 2018

   => Loading Basis Set <=

    Name: 6-31G
    Role: ORBITAL
    Keyword: BASIS
    atoms 1, 4     entry O          line   117 file /theoryfs2/ds/bakr/gits/psi4/objdir/stage/theoryfs2/ds/bakr/psi4/build_release/share/psi4/basis/6-31g.gbs 
    atoms 2-3, 5-6 entry H          line    26 file /theoryfs2/ds/bakr/gits/psi4/objdir/stage/theoryfs2/ds/bakr/psi4/build_release/share/psi4/basis/6-31g.gbs 


         ---------------------------------------------------------
                                   SCF
            by Justin Turney, Rob Parrish, Andy Simmonett
                             and Daniel Smith
                              RKS Reference
                        6 Threads,    500 MiB Core
         ---------------------------------------------------------

  ==> Geometry <==

    Molecular point group: cs
    Full point group: Cs

    Geometry (in Angstrom), charge = 0, multiplicity = 1:

       Center              X                  Y                   Z               Mass       
    ------------   -----------------  -----------------  -----------------  -----------------
           O         -1.485163346097    -0.114724564047     0.000000000000    15.994914619560
           H         -1.868415346097     0.762298435953     0.000000000000     1.007825032070
           H         -0.533833346097     0.040507435953     0.000000000000     1.007825032070
           O          1.416468653903     0.111264435953     0.000000000000    15.994914619560
           H          1.746241653903    -0.373945564047    -0.758561000000     1.007825032070
           H          1.746241653903    -0.373945564047     0.758561000000     1.007825032070

  Running in cs symmetry.

  Rotational constants: A =      7.15151  B =      0.21457  C =      0.21447 [cm^-1]
  Rotational constants: A = 214396.91676  B =   6432.69056  C =   6429.61813 [MHz]
  Nuclear repulsion =   36.662847852755299

  Charge       = 0
  Multiplicity = 1
  Electrons    = 20
  Nalpha       = 10
  Nbeta        = 10

  ==> Algorithm <==

  SCF Algorithm Type is DF.
  DIIS enabled.
  MOM disabled.
  Fractional occupation disabled.
  Guess Type is SAD.
  Energy threshold   = 1.00e-09
  Density threshold  = 1.00e-09
  Integral threshold = 0.00e+00

  ==> Primary Basis <==

  Basis Set: 6-31G
    Blend: 6-31G
    Number of shells: 18
    Number of basis function: 26
    Number of Cartesian functions: 26
    Spherical Harmonics?: false
    Max angular momentum: 1

  ==> DFT Potential <==

   => Composite Functional: WB97X <= 

    WB97X Hyb-GGA Exchange-Correlation Functional

    J.-D. Chai and M. Head-Gordon, J. Chem. Phys. 128, 084106 (2008)

    Deriv               =              1
    GGA                 =           TRUE
    Meta                =          FALSE

    Exchange Hybrid     =           TRUE
    MP2 Hybrid          =          FALSE

   => Exchange-Correlation Functionals <=

    1.0000   wB97X range-separated functional

   => Exact (HF) Exchange <=

    0.8423            HF,LR [omega = 0.3000]
    0.1577               HF 

   => Molecular Quadrature <=

    Radial Scheme       =       TREUTLER
    Pruning Scheme      =           FLAT
    Nuclear Scheme      =       TREUTLER

    BS radius alpha     =              1
    Pruning alpha       =              1
    Radial Points       =            200
    Spherical Points    =            590
    Total Points        =         684386
    Total Blocks        =           4833
    Max Points          =            256
    Max Functions       =             25

   => -D3ZERO: Empirical Dispersion <=

    Grimme's -D3 (zero-damping) Dispersion Correction
    Grimme S.; Antony J.; Ehrlich S.; Krieg H. (2010), J. Chem. Phys., 132: 154104

        S6 =   1.000000E+00
        S8 =   1.000000E+00
       SR6 =   1.281000E+00
       RS8 =   1.094000E+00
    ALPHA6 =   1.400000E+01

   => Loading Basis Set <=

    Name: (6-31G AUX)
    Role: JKFIT
    Keyword: DF_BASIS_SCF
    atoms 1, 4     entry O          line   221 file /theoryfs2/ds/bakr/gits/psi4/objdir/stage/theoryfs2/ds/bakr/psi4/build_release/share/psi4/basis/cc-pvdz-jkfit.gbs 
    atoms 2-3, 5-6 entry H          line    51 file /theoryfs2/ds/bakr/gits/psi4/objdir/stage/theoryfs2/ds/bakr/psi4/build_release/share/psi4/basis/cc-pvdz-jkfit.gbs 

  ==> Pre-Iterations <==

   -------------------------------------------------------
    Irrep   Nso     Nmo     Nalpha   Nbeta   Ndocc  Nsocc
   -------------------------------------------------------
     A'        20      20       0       0       0       0
     A"         6       6       0       0       0       0
   -------------------------------------------------------
    Total      26      26      10      10      10       0
   -------------------------------------------------------

  ==> Integral Setup <==

  ==> DFJK: Density-Fitted J/K Matrices <==

    J tasked:                  Yes
    K tasked:                  Yes
    wK tasked:                 Yes
    Omega:               3.000E-01
    OpenMP threads:              6
    Integrals threads:           6
    Memory (MB):               375
    Algorithm:                Core
    Integral Cache:           NONE
    Schwarz Cutoff:          1E-12
    Fitting Condition:       1E-12

   => Auxiliary Basis Set <=

  Basis Set: (6-31G AUX)
    Blend: CC-PVDZ-JKFIT
    Number of shells: 84
    Number of basis function: 262
    Number of Cartesian functions: 262
    Spherical Harmonics?: false
    Max angular momentum: 3

  Minimum eigenvalue in the overlap matrix is 4.5598313267E-02.
  Using Symmetric Orthogonalization.

  SCF Guess: Superposition of Atomic Densities via on-the-fly atomic UHF.

  ==> Iterations <==

                           Total Energy        Delta E     RMS |[F,P]|

   @DF-RKS iter   0:  -152.74598273052001   -1.52746e+02   1.29097e-01 
   @DF-RKS iter   1:  -152.64040979951852    1.05573e-01   2.95114e-02 
   @DF-RKS iter   2:  -152.67204692688844   -3.16371e-02   3.32918e-02 DIIS
   @DF-RKS iter   3:  -152.74270948402631   -7.06626e-02   8.96885e-04 DIIS
   @DF-RKS iter   4:  -152.74287820999743   -1.68726e-04   2.98258e-04 DIIS
   @DF-RKS iter   5:  -152.74288862647597   -1.04165e-05   1.36778e-04 DIIS
   @DF-RKS iter   6:  -152.74289092332015   -2.29684e-06   9.14319e-06 DIIS
   @DF-RKS iter   7:  -152.74289097365698   -5.03368e-08   1.63194e-06 DIIS
   @DF-RKS iter   8:  -152.74289097544593   -1.78895e-09   3.33150e-07 DIIS
   @DF-RKS iter   9:  -152.74289097548626   -4.03304e-11   4.10721e-08 DIIS
   @DF-RKS iter  10:  -152.74289097548689   -6.25278e-13   5.87496e-09 DIIS
   @DF-RKS iter  11:  -152.74289097548689    0.00000e+00   9.08916e-10 DIIS

  ==> Post-Iterations <==

    Orbital Energies (a.u.)
    -----------------------

    Doubly Occupied:                                                      

       1Ap   -19.237930     2Ap   -19.160650     3Ap    -1.177559  
       4Ap    -1.103569     1App   -0.672719     5Ap    -0.606684  
       6Ap    -0.507694     7Ap    -0.446841     8Ap    -0.421267  
       2App   -0.367446  

    Virtual:                                                              

       9Ap     0.139869    10Ap     0.219519     3App    0.238364  
      11Ap     0.354229     4App    0.894167    12Ap     0.952547  
      13Ap     0.968074    14Ap     1.024640     5App    1.043278  
      15Ap     1.055811    16Ap     1.112307    17Ap     1.128106  
       6App    1.157191    18Ap     1.272357    19Ap     1.491726  
      20Ap     1.849504  

    Final Occupation by Irrep:
             Ap   App 
    DOCC [     8,    2 ]

  Energy converged.

  @DF-RKS Final Energy:  -152.74289097548689

   => Energetics <=

    Nuclear Repulsion Energy =             36.6628478527552986
    One-Electron Energy =                -282.6527688383106351
    Two-Electron Energy =                 106.4182187039100427
    DFT Exchange-Correlation Energy =     -13.1706580838415839
    Empirical Dispersion Energy =          -0.0005306100000000
    VV10 Nonlocal Energy =                  0.0000000000000000
    Total Energy =                       -152.7428909754868585



Properties will be evaluated at   0.000000,   0.000000,   0.000000 Bohr

Properties computed using the SCF density matrix

  Nuclear Dipole Moment: (a.u.)
     X:     1.0217      Y:     0.0515      Z:     0.0000

  Electronic Dipole Moment: (a.u.)
     X:     0.2822      Y:    -0.0214      Z:     0.0000

  Dipole Moment: (a.u.)
     X:     1.3039      Y:     0.0300      Z:     0.0000     Total:     1.3043

  Dipole Moment: (Debye)
     X:     3.3143      Y:     0.0763      Z:     0.0000     Total:     3.3152


*** tstop() called on ds1.sherrill.chemistry.gatech.edu at Thu Mar  1 20:15:17 2018
Module time:
	user time   =      93.02 seconds =       1.55 minutes
	system time =     161.55 seconds =       2.69 minutes
	total time  =         23 seconds =       0.38 minutes
Total time:
	user time   =    8784.04 seconds =     146.40 minutes
	system time =   11674.40 seconds =     194.57 minutes
	total time  =       1921 seconds =      32.02 minutes

       N-Body: Complex Energy (fragments = (1, 2), basis = (1, 2):  -152.74289097548689)

   ==> N-Body: Non-Counterpoise Corrected (NoCP)  energies <==

   n-Body     Total Energy [Eh]       I.E. [kcal/mol]      Delta [kcal/mol]
        1     -152.726753809283        0.000000000000        0.000000000000
        2     -152.742890975487      -10.126225096002      -10.126225096002

   => Loading Basis Set <=

    Name: STO-3G
    Role: ORBITAL
    Keyword: BASIS
    atoms 1, 4     entry O          line    81 file /theoryfs2/ds/bakr/gits/psi4/objdir/stage/theoryfs2/ds/bakr/psi4/build_release/share/psi4/basis/sto-3g.gbs 
    atoms 2-3, 5-6 entry H          line    19 file /theoryfs2/ds/bakr/gits/psi4/objdir/stage/theoryfs2/ds/bakr/psi4/build_release/share/psi4/basis/sto-3g.gbs 

	wB97X-D3: Psi4 vs. Q-Chem.........................................PASSED

*** Psi4 exiting successfully. Buy a developer a beer!
