    -----------------------------------------------------------------------
          PSI4: An Open-Source Ab Initio Electronic Structure Package
                              PSI 4.0.0-beta4+ Driver

               Git: Rev {c4} 2584febb4244f3b3e578ee379b6fce16da611610

    J. M. Turney, A. C. Simmonett, R. M. Parrish, E. G. Hohenstein,
    F. A. Evangelista, J. T. Fermann, B. J. Mintz, L. A. Burns, J. J. Wilke,
    M. L. Abrams, N. J. Russ, M. L. Leininger, C. L. Janssen, E. T. Seidl,
    W. D. Allen, H. F. Schaefer, R. A. King, E. F. Valeev, C. D. Sherrill,
    and T. D. Crawford, WIREs Comput. Mol. Sci., (2011) (doi: 10.1002/wcms.93)

                         Additional Contributions by
    A. E. DePrince, M. Saitow, U. Bozkaya, A. Yu. Sokolov
    -----------------------------------------------------------------------

    Process ID:  16410
    PSI4DATADIR: /theoryfs2/ds/loriab/chem/psi4_trials/c4/psi4/lib

    Using LocalCommunicator (Number of processes = 1)

    Memory level set to 256.000 MB

  ==> Input File <==

--------------------------------------------------------------------------
#! Various basis set extrapolation tests only in Cfour instead of Psi4

memory 250 mb

molecule {
0 2
Li

}

set cfour_reference rohf

e_cbs = cbs('c4-scf',scf_basis='aug-cc-pV[DTQ]Z',scf_scheme=scf_xtpl_helgaker_3)

compare_values(-7.4326961561955551, e_cbs, 7, "Li ROHF extrapolated energy")  #TEST
clean()


# Here's another example
molecule {
H
H 1 R

R = 1
}

set cfour_reference rhf
#set scf_type pk
#set mp2_type conv

e_cbs = cbs('c4-mp2',corl_basis='cc-pV[TQ]Z',corl_scheme=corl_xtpl_helgaker_2,delta_wfn='c4-ccsd',delta_basis='cc-pV[DT]Z',delta_scheme=corl_xtpl_helgaker_2)
compare_values(-1.148287763304, e_cbs, 7, "H2 mp2 extrapolated energy with ccsd delta correction")  #TEST

clean()


# One final example
molecule {
He
}

e_cbs = cbs(scf_basis='aug-cc-pV[DTQ]Z',scf_scheme=scf_xtpl_helgaker_3,name='c4-ccsd',corl_basis='aug-cc-pV[DT]Z',corl_scheme=corl_xtpl_helgaker_2)

compare_values(-2.9033043421572055642, e_cbs, 7, "He ccsd extrapolated energy")  #TEST

--------------------------------------------------------------------------

  Memory set to 250.000 MiB by Python script.

  //>>>>>>>>>>>>>>>>>>>>>>>>>>>>>>>>>>>//
  //             CBS Setup             //
  //<<<<<<<<<<<<<<<<<<<<<<<<<<<<<<<<<<<//

    Naive listing of computations required.
         c4-scf / aug-cc-pvtz              for  SCF TOTAL ENERGY
         c4-scf / aug-cc-pvqz              for  SCF TOTAL ENERGY
         c4-scf / aug-cc-pvdz              for  SCF TOTAL ENERGY

    Enlightened listing of computations required.
         c4-scf / aug-cc-pvtz              for  SCF TOTAL ENERGY
         c4-scf / aug-cc-pvqz              for  SCF TOTAL ENERGY
         c4-scf / aug-cc-pvdz              for  SCF TOTAL ENERGY

  //>>>>>>>>>>>>>>>>>>>>>>>>>>>>>>>>>>>>>>>//
  // CBS Computation: C4-SCF / AUG-CC-PVTZ //
  //<<<<<<<<<<<<<<<<<<<<<<<<<<<<<<<<<<<<<<<//


  GENBAS loaded from /theoryfs2/ds/loriab/bin/GENBAS
  CFOUR to be run from /scratch/loriab//psi.16410..cfour.28844
  GENBAS loaded from PSI4 LibMints for basis AUG-CC-PVTZ

====== Begin ZMAT input for CFOUR ======
auto-generated by qcdb from molecule default
LI    0.000000000000    0.000000000000    0.000000000000

*CFOUR(BASIS=SPECIAL
SPHERICAL=1
MULTIPLICITY=2
REFERENCE=ROHF
COORDINATES=CARTESIAN
UNITS=ANGSTROM
MEMORY_SIZE=250
CALC_LEVEL=SCF
MEM_UNIT=MB
CHARGE=0)

LI:P4_1

======= End ZMAT input for CFOUR =======

 --invoking executable xjoda


   *************************************************************************
         <<<     CCCCCC     CCCCCC   |||     CCCCCC     CCCCCC   >>>
       <<<      CCC        CCC       |||    CCC        CCC         >>>
      <<<      CCC        CCC        |||   CCC        CCC            >>>
    <<<        CCC        CCC        |||   CCC        CCC              >>>
      <<<      CCC        CCC        |||   CCC        CCC            >>>
       <<<      CCC        CCC       |||    CCC        CCC         >>>
         <<<     CCCCCC     CCCCCC   |||     CCCCCC     CCCCCC   >>>
   *************************************************************************

     ****************************************************************
     * CFOUR Coupled-Cluster techniques for Computational Chemistry *
     ****************************************************************
 

   Department of Chemistry                Institut fuer Physikalische Chemie
   University of Texas at Austin          Universitaet Mainz
   Austin, TX  48792, USA                 D-55099 Mainz, Germany
 
                       version 1.2
 
                     john2                                             
                     Sun Aug 25 02:36:42 EDT 2013                      
                     integer*8 version is running
 
    -------------------------------------------------------------------
                    Input from ZMAT file
    -------------------------------------------------------------------
 
 auto-generated by qcdb from molecule default                                   
 LI    0.000000000000    0.000000000000    0.000000000000                       
                                                                                
 *CFOUR(BASIS=SPECIAL                                                           
 SPHERICAL=1                                                                    
 MULTIPLICITY=2                                                                 
 REFERENCE=ROHF                                                                 
 COORDINATES=CARTESIAN                                                          
 UNITS=ANGSTROM                                                                 
 MEMORY_SIZE=250                                                                
 CALC_LEVEL=SCF                                                                 
 MEM_UNIT=MB                                                                    
 CHARGE=0)                                                                      
                                                                                
 LI:P4_1                                                                        
                                                                                
 
    -------------------------------------------------------------------
                    CFOUR Control Parameters 
    -------------------------------------------------------------------
        External           Internal           Value            Units
          Name               Name
    -------------------------------------------------------------------
       PRINT                IPRNT               0               ***   
       CALCLEVEL            ICLLVL           SCF        [  0]   ***   
       DERIV_LEV            IDRLVL            ZERO      [  0]   ***   
       CC_CONV              ICCCNV          10D-  7             ***   
       SCF_CONV             ISCFCV          10D-  7             ***   
       XFORM_TOL            IXFTOL          10D- 11             ***   
       CC_MAXCYC            ICCCYC              0              cycles 
       LINDEP_TOL           ILINDP              8               ***   
       RDO                  IRDOFM             OFF      [  0]   ***   
  
       SCF_EXTRAPO          IRPP                ON      [  1]   ***   
       REFERENCE            IREFNC             ROHF     [  2]   ***   
       CC_EXPORDER          ICCEOR              0               ***   
       TAMP_SUM             IEVERY              0               ***   
       NTOP_TAMP            ITOPT2             15               ***   
       CCORBOPT             ICCORB             OFF      [  0] x 0.01  
       SCF_MAXCYC           ISCFCY            150              cycles 
       OCCUPATION           IOCCU   ESTIMATED BY SCF 
       PROPS                IPROPS             OFF      [  0]   ***   
       RELAX_DENS           IRDENS             OFF      [  0]   ***   
  
       SCF_EXPORDE          IRPPOR              6               ***   
       CC_EXTRAPOL          ICCEXT             DIIS     [  1]   ***   
       BRUECKNER            IBRKNR             OFF      [  0]   ***   
       XFIELD               IXEFLD              0             x 10-6  
       YFIELD               IYEFLD              0             x 10-6  
       ZFIELD               IZEFLD              0             x 10-6  
       SAVE_INTS            ISVINT             OFF      [  0]   ***   
       DROPMO               IDRPMO      NONE         
       CHARGE               ICHRGE              0               ***   
       MULTIPLICTY          IMULTP              2               ***   
  
       CPHF_CONVER          ICPHFT          10D- 16             ***   
       CPHF_MAXCYC          ICPHFC             64              cycles 
       INCORE               INCORE             OFF      [  0]   ***   
       MEMORY_SIZE          IMEMSZ          31250000           words  
       FILE_RECSIZ          IFLREC              4096           words  
       NON-HF               INONHF             OFF      [  0]   ***   
       ORBITALS             IORBTP           STANDARD   [  0]   ***   
  
       SCF_EXPSTAR          IRPPLS              8               ***   
       LOCK_ORBOCC          ILOCOC             OFF      [  0]   ***   
       HBAR                 IHBAR              OFF      [  0]   ***   
       CACHE_RECS           ICHREC             10               ***   
       GUESS                IGUESS            MOREAD    [  0]   ***   
       JODA_PRINT           IJPRNT              0               ***   
       GEO_METHOD           INR            SINGLE_POINT [  5]   ***   
       GEO_CONV             ICONTL              5              H/bohr 
       EIGENVECTOR          IVEC                1               ***   
  
       NEGEVAL              IDIE             ABORT      [  0]   ***   
       CURVILINEAR          ICURVY            OFF       [  0]   ***   
       SCALE_ON             ISTCRT              0               ***   
       GEO_MAXSTEP          IMXSTP            300            millibohr
       VIBRATION            IVIB              NO        [  0]   ***   
       EVAL_HESS            IRECAL              0            # of cyc.
       INTEGRALS            INTTYP             VMOL     [  1]   ***   
       FD_STEPSIZE          IDISFD              0            10-4 bohr
       POINTS               IGRDFD              0               ***   
       CONTRACTION          ICNTYP          GENERAL     [  1]   ***   
  
       SYMMETRY             ISYM             ON         [  0]   ***   
       BASIS                IBASIS         SPECIAL      [  0]   ***   
       SPHERICAL            IDFGHI             ON       [  1]   ***   
       RESET_FLAGS          IRESET             OFF      [  0]   ***   
       PERT_ORB             IPTORB         STANDARD     [  0]   ***   
       GENBAS_1             IGNBS1              0               ***   
       GENBAS_2             IGNBS2              0               ***   
       GENBAS_3             IGNBS3              0               ***   
       COORDINATES          ICOORD         CARTESIAN    [  1]   ***   
       SYM_CHECK            ISYMCK         OVERRIDE     [  1]   ***   
  
       SCF_PRINT            ISCFPR              0               ***   
       ECP                  IECP           OFF          [  0]   ***   
       RESTART_CC           ICCRES         OFF          [  0]   ***   
       TRANS_INV            ITRAIN         USE          [  0]   ***   
       HFSTABILITY          ISTABL         OFF          [  0]   ***   
       ROT_EVEC             ROTVEC              0               ***   
       BRUCK_CONV           IBRTOL          10D-  4             ***   
       UNITS                IUNITS         ANGSTROM     [  0]   ***   
       FD_USEGROUP          IFDGRP         FULL         [  0]   ***   
  
       FD_PROJECT           IFDPRJ         ON           [  0]   ***   
       FD_CALTYPE           IFDCAL         GRADONLY     [  0]   ***   
       VTRAN                IVTRAN         FULL/PARTIAL [  0]   ***   
       HF2_FILE             IHF2Fl         USE          [  1]   ***   
       SUBGROUP             ISUBGP         DEFAULT      [  0]   ***   
       SUBGRPAXIS           ISBXYZ         X            [  0]   ***   
       EXCITE               IEXCIT         NONE         [  0]   ***   
       LINEQ_CONV           IZTACN          10D-  7           cycles  
  
       TREAT_PERT           ITREAT         SIMULTANEOUS [  0]   ***   
       ESTATE_PROP          IEXPRP         OFF          [  0]   ***   
       GEO_MAXCYC           IOPTCY             50               ***   
       ABCDTYPE             IABCDT         STANDARD     [  0]   ***   
       AO_LADDERS           IAOLAD         SINGLEPASS   [  1]   ***   
       FOCK                 IFOCK          AO           [  1]   ***   
       ESTATE_MAXC          IEXMXC             20               ***   
       ESTATE_CONV          IEXTOL          10D-  5             ***   
       DIRECT               IDIRCT         OFF          [  0]   ***   
  
       GAMMA_ABCD           IGABCD         STORE        [  0]   ***   
       LINEQ_TYPE           ILTYPE         DIIS         [  1]   ***   
       LINEQ_MAXCY          ILMAXC             50               ***   
       TRANGRAD             IRESRM         OFF          [  0]   ***   
       PSI                  IPSI           OFF          [  0]   ***   
       GAMMA_ABCI           IGABCI         STORE        [  0]   ***   
       ESTATE_DIAG          IEXDIG         ITERATIVE    [  0]   ***   
       FC_FIELD             IFINFC              0             x 10-6  
       SD_FIELD             IFINSD              0             x 10-6  
       DIFF_TYPE            IDIFTY         RELAXED      [  0]   ***   
  
       LINEQ_EXPOR          ILMAXD              5               ***   
       FINITE_PERT          IFIPER              0             x 10-6  
       ANHARMONIC           IANHAR         OFF          [  0]   ***   
       CC_PROGRAM           ICCPRO         VCC          [  0]   ***   
       OPEN-SHELL           IOPEN          SPIN-ORBITAL [  0]   ***   
       UIJ_THRESHO          IUIJTH             25               ***   
       SCF_DAMPING          IDAMP               0             x 10-3  
       PROP_INTEGR          IINTYP         INTERNAL     [  0]   ***   
       ANH_SYMMETR          IANHSM         ABELIAN      [  0]   ***   
       ANH_ALGORIT          IANALG         STANDARD     [  0]   ***   
  
       EOM_NONIT            EOMNON         OFF          [  0]   ***   
       VIB_ALGORIT          IGEALG         STANDARD     [  0]   ***   
       ANH_DERIVAT          IANDER         SECOND       [  1]   ***   
       SPINROTATIO          ISRCON         OFF          [  0]   ***   
       CIS_CONV             ICISTL              5               ***   
       ANH_STEPSIZ          ICUBST             50000          x 10-6  
       SPIN_FLIP            ISPFLP         OFF          [  0]   ***   
       GRID                 IGRID          OFF          [  0]   ***   
  
       DBOC                 IDBOC          OFF          [  0]   ***   
       EOMFOLLOW            IEOMSR         ENERGY       [  0]   ***   
       T3_EXTRAPOL          IT3EXT         OFF          [  0]   ***   
       ESTATE_LOCK          IESLOC         OFF          [  0]   ***   
       UNOS                 IUNOS          OFF          [  0]   ***   
       FREQ_ALGORI          IVIALG         STANDARD     [  0]   ***   
       RELATIVIST           IRELAT         OFF          [  0]   ***   
       FROZEN_CORE          IFROCO         OFF          [  0]   ***   
       EXCITATION           IEXCIT              0               ***   
       INPUT_MRCC           IMRCC          ON           [  1]   ***   
  
       GIAO                 IGIAO          OFF          [  1]   ***   
       EOM_NSING            IEOMSI          10D-  0             ***   
       EOM_NTRIP            IEOMTR          10D-  0             ***   
       EOM_NSTATES          IMRCCD         DAVIDSON     [  0]   ***   
       DIAG_MRCC            IEOMST          10D-  0             ***   
       NEWNORM              INEWNO         OFF          [  0]   ***   
       TESTSUITE            ITESTS         OFF          [  0]   ***   
       BUFFERSIZE           IBUFFS            600               ***   
       SPINORBIT            ISOCAL         OFF          [  0]   ***   
       DCT                  IDCT           OFF          [  0]   ***   
  
       PARALLEL             IPARAL         ON           [  1]   ***   
       PARA_PRINT           IPPRIN              0               ***   
       COMM_SIZE            IPSIZE            ***               ***   
       PARA_INT             IPINTS         ON           [  1]   ***   
       RAMAN_INT            IRAMIN         OFF          [  0]   ***   
       RAMAN_ORB            IRAMRE         UNRELAXED    [  0]   ***   
       BREIT                IBREIT         OFF          [  0]   ***   
       MEM_UNIT             IMEMU          MB           [  2]   ***   
       SPIN_ORBIT           ISPORB         OFF          [  0]   ***   
       GENBAS_4             IGNBS4              0               ***   
  
       SPIN_SCAL            ISCSMP         OFF          [  0]   ***   
       GRID_ALGO            IGALGO         SERIAL       [  0]   ***   
       VIBPHASE             ISETPH         STANDARD     [  0]   ***   
       SEQUENCE             ISEQUE         OFF          [  0]   ***   
       HESS_TYPE            IHESTP         SCF          [  0]   ***   
       CONTINUUM            ICONTU         NONE         [  0]   ***   
       SCF_NOSTOP           ISCFST         OFF          [  0]   ***   
       CONSTANT             ICONST         OLD          [  1]   ***   
  
       EOM_MRCC             IMRCCE         OLD          [  0]   ***   
       EOM_ORDER            IEXORD         ENERGY       [  0]   ***   
       GIMIC                IGIMIC         OFF          [  0]   ***   
    -------------------------------------------------------------------
  @GETXYZ-I,     1 atoms read from ZMAT.
  1  LI         3     7.01600
  1  LI         3     7.01600
   Rotational constants (in cm-1): 

   Rotational constants (in MHz): 

********************************************************************************
   The full molecular point group is I h .
   The largest Abelian subgroup of the full molecular point group is D2h .
   The computational point group is D2h .
********************************************************************************
  There are   46 basis functions.
 @GEOPT-W, Archive file not created for single-point calculation.
                0.25 seconds walltime passed
 --executable xjoda finished with status            0
  flag is                      5
 --invoking executable xvmol
 Serial version of molecule started
 
    -------------------------------------------------------------------
                    Input from MOL file
    -------------------------------------------------------------------
 INTGRL        1    0    1    0    0    0    0    0    0                        
          *** CFOUR Program System (Release V0.1) ***                           
 auto-generated by qcdb from molecule default                                   
     1    3 X  Y   Z   0.10E-08              0    0                             
    9999.00      3.00                                                           
           3.00000000    1    4    1    1    1    1                             
 LI#1      0.000000000000      0.000000000000      0.000000000000               
    12    5                                                                     
    5988.00000000000       1.330000000000000E-004 -2.100000000000000E-005       
   0.000000000000000E+000  0.000000000000000E+000  0.000000000000000E+000       
    898.900000000000       1.025000000000000E-003 -1.610000000000000E-004       
   0.000000000000000E+000  0.000000000000000E+000  0.000000000000000E+000       
    205.900000000000       5.272000000000000E-003 -8.200000000000000E-004       
   0.000000000000000E+000  0.000000000000000E+000  0.000000000000000E+000       
    59.2400000000000       2.092900000000000E-002 -3.326000000000000E-003       
   0.000000000000000E+000  0.000000000000000E+000  0.000000000000000E+000       
    19.8700000000000       6.634000000000000E-002 -1.051900000000000E-002       
   0.000000000000000E+000  0.000000000000000E+000  0.000000000000000E+000       
    7.40600000000000       0.165775000000000      -2.809700000000000E-002       
   0.000000000000000E+000  0.000000000000000E+000  0.000000000000000E+000       
    2.93000000000000       0.315038000000000      -5.593600000000000E-002       
   0.000000000000000E+000  0.000000000000000E+000  0.000000000000000E+000       
    1.18900000000000       0.393523000000000      -9.923700000000001E-002       
   0.000000000000000E+000  0.000000000000000E+000  0.000000000000000E+000       
   0.479800000000000       0.190870000000000      -0.112189000000000            
   0.000000000000000E+000  0.000000000000000E+000  0.000000000000000E+000       
   7.509000000000000E-002  0.000000000000000E+000  0.000000000000000E+000       
    1.00000000000000       0.000000000000000E+000  0.000000000000000E+000       
   2.832000000000000E-002  0.000000000000000E+000  0.000000000000000E+000       
   0.000000000000000E+000   1.00000000000000       0.000000000000000E+000       
   7.600000000000000E-003  0.000000000000000E+000  0.000000000000000E+000       
   0.000000000000000E+000  0.000000000000000E+000   1.00000000000000            
     6    4                                                                     
    3.26600000000000       8.630000000000001E-003  0.000000000000000E+000       
   0.000000000000000E+000  0.000000000000000E+000                               
   0.651100000000000       4.753800000000000E-002  0.000000000000000E+000       
   0.000000000000000E+000  0.000000000000000E+000                               
   0.169600000000000       0.209772000000000       0.000000000000000E+000       
   0.000000000000000E+000  0.000000000000000E+000                               
   5.578000000000000E-002  0.000000000000000E+000   1.00000000000000            
   0.000000000000000E+000  0.000000000000000E+000                               
   2.050000000000000E-002  0.000000000000000E+000  0.000000000000000E+000       
    1.00000000000000       0.000000000000000E+000                               
   9.100000000000000E-003  0.000000000000000E+000  0.000000000000000E+000       
   0.000000000000000E+000   1.00000000000000                                    
     3    3                                                                     
   0.187400000000000        1.00000000000000       0.000000000000000E+000       
   0.000000000000000E+000                                                       
   8.010000000000000E-002  0.000000000000000E+000   1.00000000000000            
   0.000000000000000E+000                                                       
   3.710000000000000E-002  0.000000000000000E+000  0.000000000000000E+000       
    1.00000000000000                                                            
     2    2                                                                     
   0.182900000000000        1.00000000000000       0.000000000000000E+000       
   8.160000000000001E-002  0.000000000000000E+000   1.00000000000000            
 FINISH                                                                         
 
    -------------------------------------------------------------------
 
 One- and two-electron integrals over symmetry-adapted AOs are calculated.

  Spherical harmonics are used.
  
  Integrals less than  0.10E-13 are neglected.

   Basis function not normalized: 
   Center (as ordered in MOL file):   1
   Angular Momentum type          : s
   Offset within angular momentum :  1
   <chi|chi>                      :    1.0014722290
   Basis function not normalized: 
   Center (as ordered in MOL file):   1
   Angular Momentum type          : s
   Offset within angular momentum :  2
   <chi|chi>                      :    3.6979171091
   Basis function not normalized: 
   Center (as ordered in MOL file):   1
   Angular Momentum type          : p
   Offset within angular momentum :  1
   <chi|chi>                      :    4.1187356381
  Nuclear repulsion energy :    0.0000000000 a.u.
  required memory for a1 array                3088344  words 
  required memory for a2 array                2321804  words 
 basis number:   3    55
  @MOLECU-I, One electron integrals required         0.00000 seconds.
  @TWOEL-I,       2721 integrals of symmetry type  I I I I
  @TWOEL-I,      17243 integrals of symmetry type  I J I J
  @TWOEL-I,      11408 integrals of symmetry type  I I J J
  @TWOEL-I,      29966 integrals of symmetry type  I J K L
  @TWOEL-I, Total number of 2-e integrals      61338.
  @MOLECU-I, Two electron integrals required         0.35000 seconds.
  @CHECKOUT-I, Total execution time :       0.3500 seconds.
                0.25 seconds walltime passed
 --executable xvmol finished with status            0
 --invoking executable xvmol2ja
  @CHECKOUT-I, Total execution time :       0.0000 seconds.
                0.00 seconds walltime passed
 --executable xvmol2ja finished with status            0
 --invoking executable xvscf
 NSOSCF                     0
  There are   46 functions in the AO basis.

  There are 8 irreducible representations.

       Irrep        # of functions
         1                 11
         2                  8
         3                  8
         4                  3
         5                  8
         6                  3
         7                  3
         8                  2


  Parameters for SCF calculation: 
        SCF reference function: ROHF  
  Maximum number of iterations:  150
     Full symmetry point group: I h 
     Computational point group: D2h 
        Initial density matrix: CORE                   
     SCF convergence tolerance: 10**(- 7)
  DIIS convergence acceleration:  ON
          Latest start for DIIS:   8
                     DIIS order:   6

  Memory information:     139288 words required.
  Fock matrices are constructed from AO integral file.
  Initialization and symmetry analysis required      0.000 seconds.

  @INITGES-I, Occupancies from core Hamiltonian:

          Alpha population by irrep:   2    0    0    0    0    0    0    0
           Beta population by irrep:   1    0    0    0    0    0    0    0


  --------------------------------------------------------------------
  Iteration         Total Energy            Largest Density Difference
  --------------------------------------------------------------------
       0             0.000000000000000              0.0000000000D+00
   current occupation vector 
     2  0  0  0  0  0  0  0
     1  0  0  0  0  0  0  0
       1            -7.130386141159446              0.3723393547D+01
   current occupation vector 
     2  0  0  0  0  0  0  0
     1  0  0  0  0  0  0  0
       2            -7.416516840980798              0.2719293987D+01
   current occupation vector 
     2  0  0  0  0  0  0  0
     1  0  0  0  0  0  0  0
       3            -7.432086662346874              0.2862495798D+00
   current occupation vector 
     2  0  0  0  0  0  0  0
     1  0  0  0  0  0  0  0
       4            -7.432652082217864              0.8193924965D-01
   current occupation vector 
     2  0  0  0  0  0  0  0
     1  0  0  0  0  0  0  0
       5            -7.432678070783406              0.4224576620D-01
   current occupation vector 
     2  0  0  0  0  0  0  0
     1  0  0  0  0  0  0  0
       6            -7.432682046552374              0.5656973559D-02
   current occupation vector 
     2  0  0  0  0  0  0  0
     1  0  0  0  0  0  0  0
       7            -7.432682117522284              0.5044855833D-03
   current occupation vector 
     2  0  0  0  0  0  0  0
     1  0  0  0  0  0  0  0
       8            -7.432682117645409              0.3535684918D-04
   current occupation vector 
     2  0  0  0  0  0  0  0
     1  0  0  0  0  0  0  0
       9            -7.432682117645579              0.9089487716D-06
   current occupation vector 
     2  0  0  0  0  0  0  0
     1  0  0  0  0  0  0  0

  SCF has converged.

 save density matrix on hard disk
 total alpha spin electron number:   2.00000000000000     
 total  beta spin electron number:   1.00000000000000     
      10            -7.432682117645565              0.1320911314D-07
  Eigenvector printing suppressed.


       The average multiplicity is    2.0000000
  The expectation value of S**2 is    0.7500000

 @PUTMOS-I, Writing converged MOs to NEWMOS. 
 @PUTMOS-I, Symmetry   1 Full   2 Partial   3
 @PUTMOS-I, Symmetry   2 Full   2 Partial   0
 @PUTMOS-I, Symmetry   3 Full   2 Partial   0
 @PUTMOS-I, Symmetry   4 Full   0 Partial   3
 @PUTMOS-I, Symmetry   5 Full   2 Partial   0
 @PUTMOS-I, Symmetry   6 Full   0 Partial   3
 @PUTMOS-I, Symmetry   7 Full   0 Partial   3
 @PUTMOS-I, Symmetry   8 Full   0 Partial   2


 
  ORBITAL EIGENVALUES (ALPHA)  (1H = 27.2113838 eV)

       MO #        E(hartree)               E(eV)           FULLSYM    COMPSYM
       ----   --------------------   --------------------   -------   ---------
    1     1          -2.4849419402         -67.6187089051      Ag        Ag (1)
    2     2          -0.1963125979          -5.3419374495      Ag        Ag (1)
  +++++++++++++++++++++++++++++++++++++++++++++++++++++++++++++++++++++++++++++
    3    31           0.0140646280           0.3827179909     T1u       B1u (5)
    4    20           0.0140646280           0.3827179909     T1u       B3u (3)
    5    12           0.0140646280           0.3827179909     T1u       B2u (2)
    6     3           0.0201852308           0.5492680641      Ag        Ag (1)
    7    21           0.0412714429           1.1230530739     T1u       B3u (3)
    8    13           0.0412714429           1.1230530739     T1u       B2u (2)
    9    32           0.0412714429           1.1230530739     T1u       B1u (5)
   10     4           0.1039729692           2.8292483727      Hg        Ag (1)
   11     5           0.1039729692           2.8292483727      Hg        Ag (1)
   12    39           0.1039729692           2.8292483727      Hg       B3g (6)
   13    42           0.1039729692           2.8292483727      Hg       B2g (7)
   14    28           0.1039729692           2.8292483727      Hg       B1g (4)
   15    33           0.1368762797           3.7245929835     T1u       B1u (5)
   16    22           0.1368762797           3.7245929835     T1u       B3u (3)
   17    14           0.1368762797           3.7245929835     T1u       B2u (2)
   18     6           0.1621779780           4.4130872069      Ag        Ag (1)
   19    29           0.3118179878           8.4849989483      Hg       B1g (4)
   20    40           0.3118179878           8.4849989483      Hg       B3g (6)
   21    43           0.3118179878           8.4849989483      Hg       B2g (7)
   22     7           0.3118179878           8.4849989483      Hg        Ag (1)
   23     8           0.3118179878           8.4849989483      Hg        Ag (1)
   24    45           0.3216030554           8.7512641767       u        Au (8)
   25    24           0.3216030554           8.7512641767       u       B3u (3)
   26    16           0.3216030554           8.7512641767       u       B2u (2)
   27    15           0.3216030554           8.7512641767       u       B2u (2)
   28    35           0.3216030554           8.7512641767       u       B1u (5)
   29    34           0.3216030554           8.7512641767       u       B1u (5)
   30    23           0.3216030554           8.7512641767       u       B3u (3)
   31    17           0.4760321649          12.9534939507     T1u       B2u (2)
   32    25           0.4760321649          12.9534939507     T1u       B3u (3)
   33    36           0.4760321649          12.9534939507     T1u       B1u (5)
   34    30           0.8064155869          21.9436840540      Hg       B1g (4)
   35    41           0.8064155869          21.9436840540      Hg        Ag (6)
   36    44           0.8064155869          21.9436840540      Hg       B3g (7)
   37     9           0.8064155869          21.9436840540      Hg       B2g (1)
   38    10           0.8064155869          21.9436840540      Hg        Ag (1)
   39    46           0.9338479230          25.4112942611       u        Au (8)
   40    37           0.9338479230          25.4112942611       u       B1u (5)
   41    38           0.9338479230          25.4112942611       u       B1u (5)
   42    26           0.9338479230          25.4112942611       u       B3u (3)
   43    19           0.9338479230          25.4112942611       u       B2u (2)
   44    18           0.9338479230          25.4112942611       u       B2u (2)
   45    27           0.9338479230          25.4112942611       u       B3u (3)
   46    11           2.6756353959          72.8077417186      Ag        Ag (1)


 
  ORBITAL EIGENVALUES ( BETA)  (1H = 27.2113838 eV)

       MO #        E(hartree)               E(eV)           FULLSYM    COMPSYM
       ----   --------------------   --------------------   -------   ---------
    1     1          -2.4706535699         -67.2299025745      Ag        Ag (1)
  +++++++++++++++++++++++++++++++++++++++++++++++++++++++++++++++++++++++++++++
    2    12           0.0192631826           0.5241778540     T1u       B2u (2)
    3    20           0.0192631826           0.5241778540     T1u       B3u (3)
    4    31           0.0192631826           0.5241778540     T1u       B1u (5)
    5     3           0.0235223703           0.6400762476      Ag        Ag (1)
    6     2           0.0376063215           1.0233200471      Ag        Ag (1)
    7    32           0.0635743859           1.7299470167     T1u       B1u (5)
    8    13           0.0635743859           1.7299470167     T1u       B2u (2)
    9    21           0.0635743859           1.7299470167     T1u       B3u (3)
   10    39           0.1098501027           2.9891733085      Hg       B3g (6)
   11    42           0.1098501027           2.9891733085      Hg       B2g (7)
   12    28           0.1098501027           2.9891733085      Hg       B1g (4)
   13     4           0.1098501027           2.9891733085      Hg        Ag (1)
   14     5           0.1098501027           2.9891733085      Hg        Ag (1)
   15    22           0.1649698297           4.4890573547     T1u       B3u (3)
   16    14           0.1649698297           4.4890573547     T1u       B2u (2)
   17    33           0.1649698297           4.4890573547     T1u       B1u (5)
   18     6           0.1891291402           5.1464656266      Ag        Ag (1)
   19    29           0.3281561174           8.9295820638      Hg       B1g (4)
   20    40           0.3281561174           8.9295820638      Hg       B3g (6)
   21    43           0.3281561174           8.9295820638      Hg       B2g (7)
   22     7           0.3281561174           8.9295820638      Hg        Ag (1)
   23     8           0.3281561174           8.9295820638      Hg        Ag (1)
   24    15           0.3292338241           8.9589079536       u       B2u (2)
   25    45           0.3292338241           8.9589079536       u        Au (8)
   26    35           0.3292338241           8.9589079536       u       B1u (5)
   27    24           0.3292338241           8.9589079536       u       B3u (3)
   28    16           0.3292338241           8.9589079536       u       B2u (2)
   29    23           0.3292338241           8.9589079536       u       B3u (3)
   30    34           0.3292338241           8.9589079536       u       B1u (5)
   31    36           0.4897927453          13.3279383848     T1u       B1u (5)
   32    25           0.4897927453          13.3279383848     T1u       B3u (3)
   33    17           0.4897927453          13.3279383848     T1u       B2u (2)
   34    30           0.8208505709          22.3364799436      Hg       B1g (4)
   35     9           0.8208505709          22.3364799436      Hg        Ag (1)
   36    41           0.8208505709          22.3364799436      Hg       B3g (6)
   37    44           0.8208505709          22.3364799436      Hg       B2g (7)
   38    10           0.8208505709          22.3364799436      Hg        Ag (1)
   39    19           0.9458747811          25.7385617125       u       B2u (2)
   40    38           0.9458747811          25.7385617125       u       B3u (5)
   41    26           0.9458747811          25.7385617125       u       B3u (3)
   42    27           0.9458747811          25.7385617125       u       B1u (3)
   43    18           0.9458747811          25.7385617125       u       B2u (2)
   44    37           0.9458747811          25.7385617125       u       B1u (5)
   45    46           0.9458747811          25.7385617125       u        Au (8)
   46    11           2.6958086746          73.3566845490      Ag        Ag (1)


  VSCF finished.

  @CHECKOUT-I, Total execution time :       0.3900 seconds.
                0.25 seconds walltime passed
 --executable xvscf finished with status            0


  Variable Map:
  ----------------------------------------------------------------------------
  "CURRENT ENERGY"           =>      -7.432682117646
  "CURRENT REFERENCE ENERGY" =>      -7.432682117646
  "NUCLEAR REPULSION ENERGY" =>       0.000000000000
  "SCF TOTAL ENERGY"         =>      -7.432682117646



  //>>>>>>>>>>>>>>>>>>>>>>>>>>>>>>>>>>>>>>>//
  // CBS Computation: C4-SCF / AUG-CC-PVQZ //
  //<<<<<<<<<<<<<<<<<<<<<<<<<<<<<<<<<<<<<<<//


  GENBAS loaded from /theoryfs2/ds/loriab/bin/GENBAS
  CFOUR to be run from /scratch/loriab//psi.16410..cfour.4157
  GENBAS loaded from PSI4 LibMints for basis AUG-CC-PVQZ

====== Begin ZMAT input for CFOUR ======
auto-generated by qcdb from molecule default
LI    0.000000000000    0.000000000000    0.000000000000

*CFOUR(BASIS=SPECIAL
SPHERICAL=1
MULTIPLICITY=2
REFERENCE=ROHF
COORDINATES=CARTESIAN
UNITS=ANGSTROM
MEMORY_SIZE=250
CALC_LEVEL=SCF
MEM_UNIT=MB
CHARGE=0)

LI:P4_1

======= End ZMAT input for CFOUR =======

 --invoking executable xjoda


   *************************************************************************
         <<<     CCCCCC     CCCCCC   |||     CCCCCC     CCCCCC   >>>
       <<<      CCC        CCC       |||    CCC        CCC         >>>
      <<<      CCC        CCC        |||   CCC        CCC            >>>
    <<<        CCC        CCC        |||   CCC        CCC              >>>
      <<<      CCC        CCC        |||   CCC        CCC            >>>
       <<<      CCC        CCC       |||    CCC        CCC         >>>
         <<<     CCCCCC     CCCCCC   |||     CCCCCC     CCCCCC   >>>
   *************************************************************************

     ****************************************************************
     * CFOUR Coupled-Cluster techniques for Computational Chemistry *
     ****************************************************************
 

   Department of Chemistry                Institut fuer Physikalische Chemie
   University of Texas at Austin          Universitaet Mainz
   Austin, TX  48792, USA                 D-55099 Mainz, Germany
 
                       version 1.2
 
                     john2                                             
                     Sun Aug 25 02:36:47 EDT 2013                      
                     integer*8 version is running
 
    -------------------------------------------------------------------
                    Input from ZMAT file
    -------------------------------------------------------------------
 
 auto-generated by qcdb from molecule default                                   
 LI    0.000000000000    0.000000000000    0.000000000000                       
                                                                                
 *CFOUR(BASIS=SPECIAL                                                           
 SPHERICAL=1                                                                    
 MULTIPLICITY=2                                                                 
 REFERENCE=ROHF                                                                 
 COORDINATES=CARTESIAN                                                          
 UNITS=ANGSTROM                                                                 
 MEMORY_SIZE=250                                                                
 CALC_LEVEL=SCF                                                                 
 MEM_UNIT=MB                                                                    
 CHARGE=0)                                                                      
                                                                                
 LI:P4_1                                                                        
                                                                                
 
    -------------------------------------------------------------------
                    CFOUR Control Parameters 
    -------------------------------------------------------------------
        External           Internal           Value            Units
          Name               Name
    -------------------------------------------------------------------
       PRINT                IPRNT               0               ***   
       CALCLEVEL            ICLLVL           SCF        [  0]   ***   
       DERIV_LEV            IDRLVL            ZERO      [  0]   ***   
       CC_CONV              ICCCNV          10D-  7             ***   
       SCF_CONV             ISCFCV          10D-  7             ***   
       XFORM_TOL            IXFTOL          10D- 11             ***   
       CC_MAXCYC            ICCCYC              0              cycles 
       LINDEP_TOL           ILINDP              8               ***   
       RDO                  IRDOFM             OFF      [  0]   ***   
  
       SCF_EXTRAPO          IRPP                ON      [  1]   ***   
       REFERENCE            IREFNC             ROHF     [  2]   ***   
       CC_EXPORDER          ICCEOR              0               ***   
       TAMP_SUM             IEVERY              0               ***   
       NTOP_TAMP            ITOPT2             15               ***   
       CCORBOPT             ICCORB             OFF      [  0] x 0.01  
       SCF_MAXCYC           ISCFCY            150              cycles 
       OCCUPATION           IOCCU   ESTIMATED BY SCF 
       PROPS                IPROPS             OFF      [  0]   ***   
       RELAX_DENS           IRDENS             OFF      [  0]   ***   
  
       SCF_EXPORDE          IRPPOR              6               ***   
       CC_EXTRAPOL          ICCEXT             DIIS     [  1]   ***   
       BRUECKNER            IBRKNR             OFF      [  0]   ***   
       XFIELD               IXEFLD              0             x 10-6  
       YFIELD               IYEFLD              0             x 10-6  
       ZFIELD               IZEFLD              0             x 10-6  
       SAVE_INTS            ISVINT             OFF      [  0]   ***   
       DROPMO               IDRPMO      NONE         
       CHARGE               ICHRGE              0               ***   
       MULTIPLICTY          IMULTP              2               ***   
  
       CPHF_CONVER          ICPHFT          10D- 16             ***   
       CPHF_MAXCYC          ICPHFC             64              cycles 
       INCORE               INCORE             OFF      [  0]   ***   
       MEMORY_SIZE          IMEMSZ          31250000           words  
       FILE_RECSIZ          IFLREC              4096           words  
       NON-HF               INONHF             OFF      [  0]   ***   
       ORBITALS             IORBTP           STANDARD   [  0]   ***   
  
       SCF_EXPSTAR          IRPPLS              8               ***   
       LOCK_ORBOCC          ILOCOC             OFF      [  0]   ***   
       HBAR                 IHBAR              OFF      [  0]   ***   
       CACHE_RECS           ICHREC             10               ***   
       GUESS                IGUESS            MOREAD    [  0]   ***   
       JODA_PRINT           IJPRNT              0               ***   
       GEO_METHOD           INR            SINGLE_POINT [  5]   ***   
       GEO_CONV             ICONTL              5              H/bohr 
       EIGENVECTOR          IVEC                1               ***   
  
       NEGEVAL              IDIE             ABORT      [  0]   ***   
       CURVILINEAR          ICURVY            OFF       [  0]   ***   
       SCALE_ON             ISTCRT              0               ***   
       GEO_MAXSTEP          IMXSTP            300            millibohr
       VIBRATION            IVIB              NO        [  0]   ***   
       EVAL_HESS            IRECAL              0            # of cyc.
       INTEGRALS            INTTYP             VMOL     [  1]   ***   
       FD_STEPSIZE          IDISFD              0            10-4 bohr
       POINTS               IGRDFD              0               ***   
       CONTRACTION          ICNTYP          GENERAL     [  1]   ***   
  
       SYMMETRY             ISYM             ON         [  0]   ***   
       BASIS                IBASIS         SPECIAL      [  0]   ***   
       SPHERICAL            IDFGHI             ON       [  1]   ***   
       RESET_FLAGS          IRESET             OFF      [  0]   ***   
       PERT_ORB             IPTORB         STANDARD     [  0]   ***   
       GENBAS_1             IGNBS1              0               ***   
       GENBAS_2             IGNBS2              0               ***   
       GENBAS_3             IGNBS3              0               ***   
       COORDINATES          ICOORD         CARTESIAN    [  1]   ***   
       SYM_CHECK            ISYMCK         OVERRIDE     [  1]   ***   
  
       SCF_PRINT            ISCFPR              0               ***   
       ECP                  IECP           OFF          [  0]   ***   
       RESTART_CC           ICCRES         OFF          [  0]   ***   
       TRANS_INV            ITRAIN         USE          [  0]   ***   
       HFSTABILITY          ISTABL         OFF          [  0]   ***   
       ROT_EVEC             ROTVEC              0               ***   
       BRUCK_CONV           IBRTOL          10D-  4             ***   
       UNITS                IUNITS         ANGSTROM     [  0]   ***   
       FD_USEGROUP          IFDGRP         FULL         [  0]   ***   
  
       FD_PROJECT           IFDPRJ         ON           [  0]   ***   
       FD_CALTYPE           IFDCAL         GRADONLY     [  0]   ***   
       VTRAN                IVTRAN         FULL/PARTIAL [  0]   ***   
       HF2_FILE             IHF2Fl         USE          [  1]   ***   
       SUBGROUP             ISUBGP         DEFAULT      [  0]   ***   
       SUBGRPAXIS           ISBXYZ         X            [  0]   ***   
       EXCITE               IEXCIT         NONE         [  0]   ***   
       LINEQ_CONV           IZTACN          10D-  7           cycles  
  
       TREAT_PERT           ITREAT         SIMULTANEOUS [  0]   ***   
       ESTATE_PROP          IEXPRP         OFF          [  0]   ***   
       GEO_MAXCYC           IOPTCY             50               ***   
       ABCDTYPE             IABCDT         STANDARD     [  0]   ***   
       AO_LADDERS           IAOLAD         SINGLEPASS   [  1]   ***   
       FOCK                 IFOCK          AO           [  1]   ***   
       ESTATE_MAXC          IEXMXC             20               ***   
       ESTATE_CONV          IEXTOL          10D-  5             ***   
       DIRECT               IDIRCT         OFF          [  0]   ***   
  
       GAMMA_ABCD           IGABCD         STORE        [  0]   ***   
       LINEQ_TYPE           ILTYPE         DIIS         [  1]   ***   
       LINEQ_MAXCY          ILMAXC             50               ***   
       TRANGRAD             IRESRM         OFF          [  0]   ***   
       PSI                  IPSI           OFF          [  0]   ***   
       GAMMA_ABCI           IGABCI         STORE        [  0]   ***   
       ESTATE_DIAG          IEXDIG         ITERATIVE    [  0]   ***   
       FC_FIELD             IFINFC              0             x 10-6  
       SD_FIELD             IFINSD              0             x 10-6  
       DIFF_TYPE            IDIFTY         RELAXED      [  0]   ***   
  
       LINEQ_EXPOR          ILMAXD              5               ***   
       FINITE_PERT          IFIPER              0             x 10-6  
       ANHARMONIC           IANHAR         OFF          [  0]   ***   
       CC_PROGRAM           ICCPRO         VCC          [  0]   ***   
       OPEN-SHELL           IOPEN          SPIN-ORBITAL [  0]   ***   
       UIJ_THRESHO          IUIJTH             25               ***   
       SCF_DAMPING          IDAMP               0             x 10-3  
       PROP_INTEGR          IINTYP         INTERNAL     [  0]   ***   
       ANH_SYMMETR          IANHSM         ABELIAN      [  0]   ***   
       ANH_ALGORIT          IANALG         STANDARD     [  0]   ***   
  
       EOM_NONIT            EOMNON         OFF          [  0]   ***   
       VIB_ALGORIT          IGEALG         STANDARD     [  0]   ***   
       ANH_DERIVAT          IANDER         SECOND       [  1]   ***   
       SPINROTATIO          ISRCON         OFF          [  0]   ***   
       CIS_CONV             ICISTL              5               ***   
       ANH_STEPSIZ          ICUBST             50000          x 10-6  
       SPIN_FLIP            ISPFLP         OFF          [  0]   ***   
       GRID                 IGRID          OFF          [  0]   ***   
  
       DBOC                 IDBOC          OFF          [  0]   ***   
       EOMFOLLOW            IEOMSR         ENERGY       [  0]   ***   
       T3_EXTRAPOL          IT3EXT         OFF          [  0]   ***   
       ESTATE_LOCK          IESLOC         OFF          [  0]   ***   
       UNOS                 IUNOS          OFF          [  0]   ***   
       FREQ_ALGORI          IVIALG         STANDARD     [  0]   ***   
       RELATIVIST           IRELAT         OFF          [  0]   ***   
       FROZEN_CORE          IFROCO         OFF          [  0]   ***   
       EXCITATION           IEXCIT              0               ***   
       INPUT_MRCC           IMRCC          ON           [  1]   ***   
  
       GIAO                 IGIAO          OFF          [  1]   ***   
       EOM_NSING            IEOMSI          10D-  0             ***   
       EOM_NTRIP            IEOMTR          10D-  0             ***   
       EOM_NSTATES          IMRCCD         DAVIDSON     [  0]   ***   
       DIAG_MRCC            IEOMST          10D-  0             ***   
       NEWNORM              INEWNO         OFF          [  0]   ***   
       TESTSUITE            ITESTS         OFF          [  0]   ***   
       BUFFERSIZE           IBUFFS            600               ***   
       SPINORBIT            ISOCAL         OFF          [  0]   ***   
       DCT                  IDCT           OFF          [  0]   ***   
  
       PARALLEL             IPARAL         ON           [  1]   ***   
       PARA_PRINT           IPPRIN              0               ***   
       COMM_SIZE            IPSIZE            ***               ***   
       PARA_INT             IPINTS         ON           [  1]   ***   
       RAMAN_INT            IRAMIN         OFF          [  0]   ***   
       RAMAN_ORB            IRAMRE         UNRELAXED    [  0]   ***   
       BREIT                IBREIT         OFF          [  0]   ***   
       MEM_UNIT             IMEMU          MB           [  2]   ***   
       SPIN_ORBIT           ISPORB         OFF          [  0]   ***   
       GENBAS_4             IGNBS4              0               ***   
  
       SPIN_SCAL            ISCSMP         OFF          [  0]   ***   
       GRID_ALGO            IGALGO         SERIAL       [  0]   ***   
       VIBPHASE             ISETPH         STANDARD     [  0]   ***   
       SEQUENCE             ISEQUE         OFF          [  0]   ***   
       HESS_TYPE            IHESTP         SCF          [  0]   ***   
       CONTINUUM            ICONTU         NONE         [  0]   ***   
       SCF_NOSTOP           ISCFST         OFF          [  0]   ***   
       CONSTANT             ICONST         OLD          [  1]   ***   
  
       EOM_MRCC             IMRCCE         OLD          [  0]   ***   
       EOM_ORDER            IEXORD         ENERGY       [  0]   ***   
       GIMIC                IGIMIC         OFF          [  0]   ***   
    -------------------------------------------------------------------
  @GETXYZ-I,     1 atoms read from ZMAT.
  1  LI         3     7.01600
  1  LI         3     7.01600
   Rotational constants (in cm-1): 

   Rotational constants (in MHz): 

********************************************************************************
   The full molecular point group is I h .
   The largest Abelian subgroup of the full molecular point group is D2h .
   The computational point group is D2h .
********************************************************************************
  There are   80 basis functions.
 @GEOPT-W, Archive file not created for single-point calculation.
                0.25 seconds walltime passed
 --executable xjoda finished with status            0
  flag is                      5
 --invoking executable xvmol
 Serial version of molecule started
 
    -------------------------------------------------------------------
                    Input from MOL file
    -------------------------------------------------------------------
 INTGRL        1    0    1    0    0    0    0    0    0                        
          *** CFOUR Program System (Release V0.1) ***                           
 auto-generated by qcdb from molecule default                                   
     1    3 X  Y   Z   0.10E-08              0    0                             
    9999.00      3.00                                                           
           3.00000000    1    5    1    1    1    1    1                        
 LI#1      0.000000000000      0.000000000000      0.000000000000               
    13    6                                                                     
    6601.00000000000       1.170000000000000E-004 -1.800000000000000E-005       
   0.000000000000000E+000  0.000000000000000E+000  0.000000000000000E+000       
   0.000000000000000E+000                                                       
    989.700000000000       9.110000000000000E-004 -1.420000000000000E-004       
   0.000000000000000E+000  0.000000000000000E+000  0.000000000000000E+000       
   0.000000000000000E+000                                                       
    225.700000000000       4.728000000000000E-003 -7.410000000000000E-004       
   0.000000000000000E+000  0.000000000000000E+000  0.000000000000000E+000       
   0.000000000000000E+000                                                       
    64.2900000000000       1.919700000000000E-002 -3.020000000000000E-003       
   0.000000000000000E+000  0.000000000000000E+000  0.000000000000000E+000       
   0.000000000000000E+000                                                       
    21.1800000000000       6.304700000000001E-002 -1.012300000000000E-002       
   0.000000000000000E+000  0.000000000000000E+000  0.000000000000000E+000       
   0.000000000000000E+000                                                       
    7.72400000000000       0.163208000000000      -2.709400000000000E-002       
   0.000000000000000E+000  0.000000000000000E+000  0.000000000000000E+000       
   0.000000000000000E+000                                                       
    3.00300000000000       0.314827000000000      -5.735900000000000E-002       
   0.000000000000000E+000  0.000000000000000E+000  0.000000000000000E+000       
   0.000000000000000E+000                                                       
    1.21200000000000       0.393936000000000      -9.389500000000001E-002       
   0.000000000000000E+000  0.000000000000000E+000  0.000000000000000E+000       
   0.000000000000000E+000                                                       
   0.493000000000000       0.196918000000000      -0.121091000000000            
   0.000000000000000E+000  0.000000000000000E+000  0.000000000000000E+000       
   0.000000000000000E+000                                                       
   9.515000000000000E-002  0.000000000000000E+000  0.000000000000000E+000       
    1.00000000000000       0.000000000000000E+000  0.000000000000000E+000       
   0.000000000000000E+000                                                       
   4.791000000000000E-002  0.000000000000000E+000  0.000000000000000E+000       
   0.000000000000000E+000   1.00000000000000       0.000000000000000E+000       
   0.000000000000000E+000                                                       
   2.220000000000000E-002  0.000000000000000E+000  0.000000000000000E+000       
   0.000000000000000E+000  0.000000000000000E+000   1.00000000000000            
   0.000000000000000E+000                                                       
   6.360000000000000E-003  0.000000000000000E+000  0.000000000000000E+000       
   0.000000000000000E+000  0.000000000000000E+000  0.000000000000000E+000       
    1.00000000000000                                                            
     7    5                                                                     
    6.25000000000000       3.388000000000000E-003  0.000000000000000E+000       
   0.000000000000000E+000  0.000000000000000E+000  0.000000000000000E+000       
    1.37000000000000       1.931600000000000E-002  0.000000000000000E+000       
   0.000000000000000E+000  0.000000000000000E+000  0.000000000000000E+000       
   0.367200000000000       7.910399999999999E-002  0.000000000000000E+000       
   0.000000000000000E+000  0.000000000000000E+000  0.000000000000000E+000       
   0.119200000000000       0.000000000000000E+000   1.00000000000000            
   0.000000000000000E+000  0.000000000000000E+000  0.000000000000000E+000       
   4.474000000000000E-002  0.000000000000000E+000  0.000000000000000E+000       
    1.00000000000000       0.000000000000000E+000  0.000000000000000E+000       
   1.795000000000000E-002  0.000000000000000E+000  0.000000000000000E+000       
   0.000000000000000E+000   1.00000000000000       0.000000000000000E+000       
   7.560000000000000E-003  0.000000000000000E+000  0.000000000000000E+000       
   0.000000000000000E+000  0.000000000000000E+000   1.00000000000000            
     4    4                                                                     
   0.344000000000000        1.00000000000000       0.000000000000000E+000       
   0.000000000000000E+000  0.000000000000000E+000                               
   0.153000000000000       0.000000000000000E+000   1.00000000000000            
   0.000000000000000E+000  0.000000000000000E+000                               
   6.800000000000000E-002  0.000000000000000E+000  0.000000000000000E+000       
    1.00000000000000       0.000000000000000E+000                               
   2.660000000000000E-002  0.000000000000000E+000  0.000000000000000E+000       
   0.000000000000000E+000   1.00000000000000                                    
     3    3                                                                     
   0.246000000000000        1.00000000000000       0.000000000000000E+000       
   0.000000000000000E+000                                                       
   0.129200000000000       0.000000000000000E+000   1.00000000000000            
   0.000000000000000E+000                                                       
   5.520000000000000E-002  0.000000000000000E+000  0.000000000000000E+000       
    1.00000000000000                                                            
     2    2                                                                     
   0.238000000000000        1.00000000000000       0.000000000000000E+000       
   0.105000000000000       0.000000000000000E+000   1.00000000000000            
 FINISH                                                                         
 
    -------------------------------------------------------------------
 
 One- and two-electron integrals over symmetry-adapted AOs are calculated.

  Spherical harmonics are used.
  
  Integrals less than  0.10E-13 are neglected.

   Basis function not normalized: 
   Center (as ordered in MOL file):   1
   Angular Momentum type          : s
   Offset within angular momentum :  1
   <chi|chi>                      :    1.0025818244
   Basis function not normalized: 
   Center (as ordered in MOL file):   1
   Angular Momentum type          : s
   Offset within angular momentum :  2
   <chi|chi>                      :    3.6582487898
   Basis function not normalized: 
   Center (as ordered in MOL file):   1
   Angular Momentum type          : p
   Offset within angular momentum :  1
   <chi|chi>                      :   10.7663706779
  Nuclear repulsion energy :    0.0000000000 a.u.
  required memory for a1 array                3661596  words 
  required memory for a2 array                3638123  words 
 basis number:   3   105
  @MOLECU-I, One electron integrals required         0.02000 seconds.
  @TWOEL-I,      18297 integrals of symmetry type  I I I I
  @TWOEL-I,     130491 integrals of symmetry type  I J I J
  @TWOEL-I,      80662 integrals of symmetry type  I I J J
  @TWOEL-I,     284715 integrals of symmetry type  I J K L
  @TWOEL-I, Total number of 2-e integrals     514165.
  @MOLECU-I, Two electron integrals required         4.04000 seconds.
  @CHECKOUT-I, Total execution time :       4.0700 seconds.
                2.25 seconds walltime passed
 --executable xvmol finished with status            0
 --invoking executable xvmol2ja
  @CHECKOUT-I, Total execution time :       0.0000 seconds.
                0.00 seconds walltime passed
 --executable xvmol2ja finished with status            0
 --invoking executable xvscf
 NSOSCF                     0
  There are   80 functions in the AO basis.

  There are 8 irreducible representations.

       Irrep        # of functions
         1                 20
         2                 11
         3                 11
         4                  8
         5                 11
         6                  8
         7                  8
         8                  3


  Parameters for SCF calculation: 
        SCF reference function: ROHF  
  Maximum number of iterations:  150
     Full symmetry point group: I h 
     Computational point group: D2h 
        Initial density matrix: CORE                   
     SCF convergence tolerance: 10**(- 7)
  DIIS convergence acceleration:  ON
          Latest start for DIIS:   8
                     DIIS order:   6

  Memory information:     390598 words required.
  Fock matrices are constructed from AO integral file.
  Initialization and symmetry analysis required      0.000 seconds.

  @INITGES-I, Occupancies from core Hamiltonian:

          Alpha population by irrep:   1    1    0    0    0    0    0    0
           Beta population by irrep:   1    0    0    0    0    0    0    0


  --------------------------------------------------------------------
  Iteration         Total Energy            Largest Density Difference
  --------------------------------------------------------------------
       0             0.000000000000000              0.0000000000D+00
   current occupation vector 
     1  1  0  0  0  0  0  0
     1  0  0  0  0  0  0  0
       1            -6.885649819005427              0.2286047083D+01
   current occupation vector 
     1  1  0  0  0  0  0  0
     1  0  0  0  0  0  0  0
       2            -7.327109575606465              0.1721749330D+01
   current occupation vector 
     2  0  0  0  0  0  0  0
     1  0  0  0  0  0  0  0
       3            -7.426096807836557              0.1667230761D+01
   current occupation vector 
     2  0  0  0  0  0  0  0
     1  0  0  0  0  0  0  0
       4            -7.432005023781585              0.1370369158D+00
   current occupation vector 
     2  0  0  0  0  0  0  0
     1  0  0  0  0  0  0  0
       5            -7.432458357312949              0.1690582324D+00
   current occupation vector 
     2  0  0  0  0  0  0  0
     1  0  0  0  0  0  0  0
       6            -7.432693255871832              0.3923291531D-01
   current occupation vector 
     2  0  0  0  0  0  0  0
     1  0  0  0  0  0  0  0
       7            -7.432695038139155              0.9762610838D-02
   current occupation vector 
     2  0  0  0  0  0  0  0
     1  0  0  0  0  0  0  0
       8            -7.432695423224915              0.1457961500D-02
   current occupation vector 
     2  0  0  0  0  0  0  0
     1  0  0  0  0  0  0  0
       9            -7.432695429151507              0.2197190407D-03
   current occupation vector 
     2  0  0  0  0  0  0  0
     1  0  0  0  0  0  0  0
      10            -7.432695429194061              0.1318511844D-04
   current occupation vector 
     2  0  0  0  0  0  0  0
     1  0  0  0  0  0  0  0
      11            -7.432695429194065              0.2349323374D-06
   current occupation vector 
     2  0  0  0  0  0  0  0
     1  0  0  0  0  0  0  0

  SCF has converged.

 save density matrix on hard disk
 total alpha spin electron number:   2.00000000000000     
 total  beta spin electron number:  0.999999999999997     
      12            -7.432695429194060              0.8927580608D-08

  Final occupancies:

     Alpha population by irrep:   2    0    0    0    0    0    0    0
      Beta population by irrep:   1    0    0    0    0    0    0    0


  Eigenvector printing suppressed.


       The average multiplicity is    2.0000000
  The expectation value of S**2 is    0.7500000

 @PUTMOS-I, Writing converged MOs to NEWMOS. 
 @PUTMOS-I, Symmetry   1 Full   5 Partial   0
 @PUTMOS-I, Symmetry   2 Full   2 Partial   3
 @PUTMOS-I, Symmetry   3 Full   2 Partial   3
 @PUTMOS-I, Symmetry   4 Full   2 Partial   0
 @PUTMOS-I, Symmetry   5 Full   2 Partial   3
 @PUTMOS-I, Symmetry   6 Full   2 Partial   0
 @PUTMOS-I, Symmetry   7 Full   2 Partial   0
 @PUTMOS-I, Symmetry   8 Full   0 Partial   3


 
  ORBITAL EIGENVALUES (ALPHA)  (1H = 27.2113838 eV)

       MO #        E(hartree)               E(eV)           FULLSYM    COMPSYM
       ----   --------------------   --------------------   -------   ---------
    1     1          -2.4848732610         -67.6168400470      Ag        Ag (1)
    2     2          -0.1963219589          -5.3421921759      Ag        Ag (1)
  +++++++++++++++++++++++++++++++++++++++++++++++++++++++++++++++++++++++++++++
    3    21           0.0124197849           0.3379595336     T1u       B2u (2)
    4    32           0.0124197849           0.3379595337     T1u       B3u (3)
    5    51           0.0124197849           0.3379595337     T1u       B1u (5)
    6     3           0.0145602820           0.3962054230      Ag        Ag (1)
    7    22           0.0353603493           0.9622040372     T1u       B2u (2)
    8    33           0.0353603493           0.9622040377     T1u       B3u (3)
    9    52           0.0353603493           0.9622040377     T1u       B1u (5)
   10     4           0.0786261361           2.1395259683      Hg        Ag (1)
   11    70           0.0786261361           2.1395259683      Hg       B2g (7)
   12    62           0.0786261361           2.1395259684      Hg       B3g (6)
   13    43           0.0786261361           2.1395259684      Hg       B1g (4)
   14     5           0.0786261361           2.1395259684      Hg        Ag (1)
   15     6           0.0938994148           2.5551330167      Ag        Ag (1)
   16    23           0.1101943542           2.9985408680     T1u       B2u (2)
   17    34           0.1101943543           2.9985408683     T1u       B3u (3)
   18    53           0.1101943543           2.9985408683     T1u       B1u (5)
   19    35           0.2168043892           5.8995474479       u       B3u (3)
   20    54           0.2168043892           5.8995474479       u       B1u (5)
   21    24           0.2168043892           5.8995474481       u       B2u (2)
   22    78           0.2168043892           5.8995474481       u        Au (8)
   23    36           0.2168043892           5.8995474482       u       B3u (3)
   24    55           0.2168043892           5.8995474482       u       B1u (5)
   25    25           0.2168043892           5.8995474483       u       B2u (2)
   26     7           0.2436557640           6.6302105128      Hg        Ag (1)
   27    71           0.2436557640           6.6302105128      Hg       B2g (7)
   28    63           0.2436557640           6.6302105129      Hg       B3g (6)
   29    44           0.2436557640           6.6302105129      Hg       B1g (4)
   30     8           0.2436557640           6.6302105129      Hg        Ag (1)
   31    37           0.3294368453           8.9644324406     T1u       B3u (3)
   32    56           0.3294368453           8.9644324406     T1u       B1u (5)
   33    26           0.3294368453           8.9644324408     T1u       B2u (2)
   34     9           0.3524468986           9.5905678341      Ag        Ag (1)
   35    10           0.5267746285          14.3342666038       g        Ag (1)
   36    72           0.5267746285          14.3342666038       g       B2g (7)
   37    45           0.5267746286          14.3342666040       g       B1g (4)
   38    64           0.5267746286          14.3342666040       g       B3g (6)
   39    11           0.5267746286          14.3342666042       g        Ag (1)
   40    73           0.5267746286          14.3342666042       g       B2g (7)
   41    46           0.5267746286          14.3342666043       g       B1g (4)
   42    65           0.5267746286          14.3342666043       g       B3g (6)
   43    12           0.5267746286          14.3342666043       g        Ag (1)
   44    57           0.6120235634          16.6540080907       u       B1u (5)
   45    38           0.6120235634          16.6540080907       u       B3u (3)
   46    27           0.6120235634          16.6540080910       u       B2u (2)
   47    79           0.6120235634          16.6540080910       u        Au (8)
   48    39           0.6120235634          16.6540080912       u       B3u (3)
   49    58           0.6120235634          16.6540080912       u       B1u (5)
   50    28           0.6120235634          16.6540080912       u       B2u (2)
   51    13           0.6321835301          17.2025886832      Hg        Ag (1)
   52    74           0.6321835301          17.2025886832      Hg       B2g (7)
   53    66           0.6321835302          17.2025886835      Hg       B3g (6)
   54    47           0.6321835302          17.2025886835      Hg       B1g (4)
   55    14           0.6321835302          17.2025886836      Hg        Ag (1)
   56    40           1.1104546357          30.2170073050     T1u       B3u (3)
   57    59           1.1104546357          30.2170073050     T1u       B1u (5)
   58    29           1.1104546357          30.2170073053     T1u       B2u (2)
   59    41           1.4360960717          39.0781614090       u       B3u (3)
   60    60           1.4360960717          39.0781614090       u       B1u (5)
   61    30           1.4360960717          39.0781614093       u       B2u (2)
   62    80           1.4360960717          39.0781614093       u        Au (8)
   63    42           1.4360960717          39.0781614095       u       B3u (3)
   64    61           1.4360960717          39.0781614095       u       B1u (5)
   65    31           1.4360960717          39.0781614096       u       B2u (2)
   66    15           1.4594468120          39.7135673669       g        Ag (1)
   67    75           1.4594468120          39.7135673669       g       B2g (7)
   68    48           1.4594468121          39.7135673672       g       B1g (4)
   69    67           1.4594468121          39.7135673672       g       B3g (6)
   70    16           1.4594468121          39.7135673674       g        Ag (1)
   71    76           1.4594468121          39.7135673674       g       B2g (7)
   72    68           1.4594468121          39.7135673676       g       B3g (6)
   73    49           1.4594468121          39.7135673676       g       B1g (4)
   74    17           1.4594468121          39.7135673676       g        Ag (1)
   75    18           1.5502313372          42.1839399244      Hg        Ag (1)
   76    77           1.5502313372          42.1839399244      Hg       B2g (7)
   77    69           1.5502313372          42.1839399248      Hg       B3g (6)
   78    50           1.5502313372          42.1839399248      Hg       B1g (4)
   79    19           1.5502313372          42.1839399249      Hg        Ag (1)
   80    20           3.0111542593          81.9376742898      Ag        Ag (1)


 
  ORBITAL EIGENVALUES ( BETA)  (1H = 27.2113838 eV)

       MO #        E(hartree)               E(eV)           FULLSYM    COMPSYM
       ----   --------------------   --------------------   -------   ---------
    1     1          -2.4705769678         -67.2278181277      Ag        Ag (1)
  +++++++++++++++++++++++++++++++++++++++++++++++++++++++++++++++++++++++++++++
    2    32           0.0160856640           0.4377131783     T1u       B3u (3)
    3    51           0.0160856640           0.4377131783     T1u       B1u (5)
    4    21           0.0160856641           0.4377131785     T1u       B2u (2)
    5     3           0.0164587535           0.4478654578      Ag        Ag (1)
    6     2           0.0376851084           1.0254639476      Ag        Ag (1)
    7    52           0.0548120554           1.4915118787     T1u       B1u (5)
    8    33           0.0548120554           1.4915118787     T1u       B3u (3)
    9    22           0.0548120555           1.4915118792     T1u       B2u (2)
   10    70           0.0819857362           2.2309453366      Hg       B2g (7)
   11     4           0.0819857362           2.2309453366      Hg        Ag (1)
   12    62           0.0819857363           2.2309453368      Hg       B3g (6)
   13    43           0.0819857363           2.2309453368      Hg       B1g (4)
   14     5           0.0819857363           2.2309453369      Hg        Ag (1)
   15     6           0.1070653693           2.9133968578      Ag        Ag (1)
   16    53           0.1363497629           3.7102657331     T1u       B1u (5)
   17    34           0.1363497629           3.7102657331     T1u       B3u (3)
   18    23           0.1363497630           3.7102657335     T1u       B2u (2)
   19    35           0.2207770835           6.0076499582       u       B3u (3)
   20    54           0.2207770835           6.0076499582       u       B1u (5)
   21    24           0.2207770835           6.0076499585       u       B2u (2)
   22    78           0.2207770835           6.0076499585       u        Au (8)
   23    55           0.2207770835           6.0076499587       u       B1u (5)
   24    36           0.2207770835           6.0076499587       u       B3u (3)
   25    25           0.2207770835           6.0076499587       u       B2u (2)
   26     7           0.2578895124           7.0175305038      Hg        Ag (1)
   27    71           0.2578895124           7.0175305038      Hg       B2g (7)
   28    63           0.2578895124           7.0175305043      Hg       B3g (6)
   29    44           0.2578895124           7.0175305043      Hg       B1g (4)
   30     8           0.2578895124           7.0175305045      Hg        Ag (1)
   31    56           0.3481571412           9.4738375978     T1u       B1u (5)
   32    37           0.3481571412           9.4738375978     T1u       B3u (3)
   33    26           0.3481571412           9.4738375985     T1u       B2u (2)
   34     9           0.3781725121          10.2905973771      Ag        Ag (1)
   35    10           0.5320306217          14.4772894513       g        Ag (1)
   36    72           0.5320306217          14.4772894513       g       B2g (7)
   37    45           0.5320306217          14.4772894517       g       B1g (4)
   38    64           0.5320306217          14.4772894517       g       B3g (6)
   39    11           0.5320306217          14.4772894519       g        Ag (1)
   40    73           0.5320306217          14.4772894519       g       B2g (7)
   41    46           0.5320306217          14.4772894520       g       B1g (4)
   42    65           0.5320306217          14.4772894520       g       B3g (6)
   43    12           0.5320306217          14.4772894521       g        Ag (1)
   44    57           0.6222987523          16.9336101981       u       B1u (5)
   45    38           0.6222987523          16.9336101981       u       B3u (3)
   46    27           0.6222987523          16.9336101986       u       B2u (2)
   47    79           0.6222987523          16.9336101986       u        Au (8)
   48    58           0.6222987523          16.9336101989       u       B1u (5)
   49    39           0.6222987523          16.9336101989       u       B3u (3)
   50    28           0.6222987523          16.9336101990       u       B2u (2)
   51    13           0.6478942876          17.6301001332      Hg        Ag (1)
   52    74           0.6478942876          17.6301001332      Hg       B2g (7)
   53    66           0.6478942876          17.6301001338      Hg       B3g (6)
   54    47           0.6478942876          17.6301001338      Hg       B1g (4)
   55    14           0.6478942876          17.6301001340      Hg        Ag (1)
   56    59           1.1174180763          30.4064921618     T1u       B1u (5)
   57    40           1.1174180763          30.4064921618     T1u       B3u (3)
   58    29           1.1174180763          30.4064921624     T1u       B2u (2)
   59    41           1.4455808821          39.3362562246       u       B3u (3)
   60    60           1.4455808821          39.3362562246       u       B1u (5)
   61    30           1.4455808821          39.3362562251       u       B2u (2)
   62    80           1.4455808821          39.3362562251       u        Au (8)
   63    61           1.4455808821          39.3362562254       u       B1u (5)
   64    42           1.4455808821          39.3362562254       u       B3u (3)
   65    31           1.4455808821          39.3362562255       u       B2u (2)
   66    15           1.4677559202          39.9396696980       g        Ag (1)
   67    75           1.4677559202          39.9396696980       g       B2g (7)
   68    48           1.4677559202          39.9396696984       g       B1g (4)
   69    67           1.4677559202          39.9396696984       g       B3g (6)
   70    16           1.4677559202          39.9396696987       g        Ag (1)
   71    76           1.4677559202          39.9396696987       g       B2g (7)
   72    68           1.4677559202          39.9396696989       g       B3g (6)
   73    49           1.4677559202          39.9396696989       g       B1g (4)
   74    17           1.4677559202          39.9396696990       g        Ag (1)
   75    18           1.5584436011          42.4074069900      Hg        Ag (1)
   76    77           1.5584436011          42.4074069900      Hg       B2g (7)
   77    69           1.5584436011          42.4074069906      Hg       B3g (6)
   78    50           1.5584436011          42.4074069906      Hg       B1g (4)
   79    19           1.5584436011          42.4074069907      Hg        Ag (1)
[...]
   18    16           7.1083505850         193.4280560936      Hg       B1g (4)
   19    21           7.1083505850         193.4280560936      Hg       B3g (6)
   20    23           7.1083505850         193.4280560936      Hg       B2g (7)
   21    19           8.2211450746         223.7087340601     T1u       B2u (5)
   22    11           8.2211450746         223.7087340601     T1u       B3u (2)
   23    14           8.2211450746         223.7087340601     T1u       B1u (3)


  VSCF finished.

  @CHECKOUT-I, Total execution time :       0.0100 seconds.
                0.00 seconds walltime passed
 --executable xvscf finished with status            0
 --invoking executable xvtran
  Full RHF integral transformation
  Transformation of IIII integrals :
  1 pass through the AO integral file was required.
         379 AO integrals were read.
         414 MO integrals were written to HF2.
  Transformation of IIJJ integrals :
  1 pass through the AO integral file was required.
        1161 AO integrals were read.
        1161 MO integrals were written to HF2.
  Transformation of IJIJ integrals :
  1 pass through the AO integral file was required.
        1506 AO integrals were read.
        1506 MO integrals were written to HF2.
  Transformation of IJKL integrals :
  1 pass through the AO integral file was required.
        1760 AO integrals were read.
        1760 MO integrals were written to HF2.
  Summary of active molecular orbitals: 
------------------------------------------------------------------------
 
  Index      Eigenvalue    Symmetry    Index      Eigenvalue    Symmetry
------------------------------------------------------------------------
     1        -0.9178684        1        13         1.9620916        3
     2         0.1105369        1        14         8.2211451        3
     3         0.8391132        1        15         1.5201067        4
     4         1.5201067        1        16         7.1083506        4
     5         1.5201067        1        17         0.4267699        5
     6         4.8164878        1        18         1.9620916        5
     7         7.1083506        1        19         8.2211451        5
     8         7.1083506        1        20         1.5201067        6
     9         0.4267699        2        21         7.1083506        6
    10         1.9620916        2        22         1.5201067        7
    11         8.2211451        2        23         7.1083506        7
    12         0.4267699        3
------------------------------------------------------------------------
  @CHECKOUT-I, Total execution time :       0.0000 seconds.
                0.00 seconds walltime passed
 --executable xvtran finished with status            0
 --invoking executable xintprc
  Processing integrals for CCSD calculation.
  @GMOIAA-I, Processing MO integrals for spin case AA.
  @GMOIAA-I, Generation of integral list completed.
                      TYPE                NUMBER
                      ----               --------
                      PPPP                  4055
                      PPPH                   696
                      PPHH                    42
                      PHPH                    43
                      PHHH                     4
                      HHHH                     1

                     TOTAL                  4841

  @FORMT2-I, Second-order MP correlation energies:
              ----------------------------------------------
              E(SCF)                =   -2.861183426116 a.u.
              E2(AA)                =    0.000000000000 a.u.
              E2(AB)                =   -0.033620815004 a.u.
              E2(TOT)               =   -0.033620815004 a.u.
              Total MP2 energy      =   -2.894804241119 a.u.
              ----------------------------------------------
   Largest T2 amplitudes for spin case AB:
       _       _                 _       _                 _       _
   i   j   a   b             i   j   a   b             i   j   a   b
-----------------------------------------------------------------------------
[  1   1   3   3]-0.03168 [  1   1  10  10]-0.01998 [  1   1  13  13]-0.01998
[  1   1  18  18]-0.01998 [  1   1   6   6]-0.01847 [  1   1   6   3]-0.01571
[  1   1   3   6]-0.01571 [  1   1   3   2]-0.01466 [  1   1   2   3]-0.01466
[  1   1  10   9] 0.01150 [  1   1   9  10] 0.01150 [  1   1  13  12] 0.01150
[  1   1  12  13] 0.01150 [  1   1  18  17] 0.01150 [  1   1  17  18] 0.01150
-----------------------------------------------------------------------------
   Norm of T2AB vector (       88 symmetry allowed elements):  0.0740115439.
-----------------------------------------------------------------------------
  @CHECKOUT-I, Total execution time :       0.0000 seconds.
                0.00 seconds walltime passed
 --executable xintprc finished with status            0
 --invoking executable xecc
 CCSD energy will be calculated.
 Largest T2 amplitudes for spin case AB:
        _       _                 _       _                 _       _
    i   j   a   b             i   j   a   b             i   j   a   b
 -----------------------------------------------------------------------------
 [  1   1   3   3]-0.03168 [  1   1  10  10]-0.01998 [  1   1  13  13]-0.01998
 [  1   1  18  18]-0.01998 [  1   1   6   6]-0.01847 [  1   1   6   3]-0.01571
 [  1   1   3   6]-0.01571 [  1   1   3   2]-0.01466 [  1   1   2   3]-0.01466
 [  1   1  10   9] 0.01150 [  1   1   9  10] 0.01150 [  1   1  13  12] 0.01150
 [  1   1  12  13] 0.01150 [  1   1  18  17] 0.01150 [  1   1  17  18] 0.01150
 -----------------------------------------------------------------------------
 Norm of T2AB vector (       88 symmetry allowed elements):  0.0740115439.
 -----------------------------------------------------------------------------
 The total correlation energy is -0.033620815004 a.u.
 Resorts of amplitudes and integrals required   0.0 seconds.
 Starting iterative solution of the CC equations.
 The DIIS procedure is used to accelerate convergence.
 5 expansion vectors are used in the DIIS extrapolation.
 Convergence criterium is 10**(-7).
 Maximum number of iterations is  50.
 Iteration Nr. 1
 Generation of Intermediates required        0.0 seconds.
 Construction of Hbar(ab,ij) and Hbar(a,i) required   0.0 seconds.
 Amplitude changes are:
 -------------------------------------------------------------------
              Spin      RMS          Max.      Max. change for
  Amplitude   Case     Change       Change       i    j    a    b
 -------------------------------------------------------------------
     T1        AA    0.0001698732 0.0010227861    1         6
     T2        AB    0.0001501807-0.0066034471    1    1    3    3
 -------------------------------------------------------------------
 The total correlation energy is -0.038259462951 a.u.
 Convergence information after     1 iterations: 
 Largest element of residual vector : -0.66034471E-02.
 Largest element of DIIS residual   : -0.66034471E-02.
 CPU: This iteration required        0.0 seconds.
 Iteration Nr. 2
 Generation of Intermediates required        0.0 seconds.
 Construction of Hbar(ab,ij) and Hbar(a,i) required   0.0 seconds.
 Amplitude changes are:
 -------------------------------------------------------------------
              Spin      RMS          Max.      Max. change for
  Amplitude   Case     Change       Change       i    j    a    b
 -------------------------------------------------------------------
     T1        AA    0.0001071684-0.0005351357    1         2
     T2        AB    0.0000356666-0.0017478892    1    1    3    3
 -------------------------------------------------------------------
 The total correlation energy is -0.039149525808 a.u.
 Convergence information after     2 iterations: 
 Largest element of residual vector : -0.17478892E-02.
 Largest element of DIIS residual   : -0.54329320E-03.
 CPU: This iteration required        0.0 seconds.
 Iteration Nr. 3
 Generation of Intermediates required        0.0 seconds.
 Construction of Hbar(ab,ij) and Hbar(a,i) required   0.0 seconds.
 Amplitude changes are:
 -------------------------------------------------------------------
              Spin      RMS          Max.      Max. change for
  Amplitude   Case     Change       Change       i    j    a    b
 -------------------------------------------------------------------
     T1        AA    0.0000442204-0.0002387605    1         2
     T2        AB    0.0000027163-0.0001330756    1    1    3    3
 -------------------------------------------------------------------
 The total correlation energy is -0.039406884394 a.u.
 Convergence information after     3 iterations: 
 Largest element of residual vector : -0.23876053E-03.
 Largest element of DIIS residual   : -0.13514157E-03.
 CPU: This iteration required        0.0 seconds.
 Iteration Nr. 4
 Generation of Intermediates required        0.0 seconds.
 Construction of Hbar(ab,ij) and Hbar(a,i) required   0.0 seconds.
 Amplitude changes are:
 -------------------------------------------------------------------
              Spin      RMS          Max.      Max. change for
  Amplitude   Case     Change       Change       i    j    a    b
 -------------------------------------------------------------------
     T1        AA    0.0000049208-0.0000319661    1         2
     T2        AB    0.0000004818-0.0000302928    1    1    2    2
 -------------------------------------------------------------------
 The total correlation energy is -0.039415078448 a.u.
 Convergence information after     4 iterations: 
 Largest element of residual vector : -0.31966130E-04.
 Largest element of DIIS residual   : -0.31233577E-04.
 CPU: This iteration required        0.0 seconds.
 Iteration Nr. 5
 Generation of Intermediates required        0.0 seconds.
 Construction of Hbar(ab,ij) and Hbar(a,i) required   0.0 seconds.
 Amplitude changes are:
 -------------------------------------------------------------------
              Spin      RMS          Max.      Max. change for
  Amplitude   Case     Change       Change       i    j    a    b
 -------------------------------------------------------------------
     T1        AA    0.0000008895-0.0000057745    1         2
     T2        AB    0.0000000729-0.0000029179    1    1    3    2
 -------------------------------------------------------------------
 The total correlation energy is -0.039414621635 a.u.
 Convergence information after     5 iterations: 
 Largest element of residual vector : -0.57744976E-05.
 Largest element of DIIS residual   :  0.40881034E-05.
 Largest T1 amplitudes for spin case AA:
    i       a                 i       a                 i       a    
 -----------------------------------------------------------------------------
 [  1       2    ]-0.00168 [  1       6    ] 0.00142 [  1       3    ]-0.00096
 [  1       4    ] 0.00000 [  1       7    ] 0.00000 [  1       5    ] 0.00000
 [  1       8    ] 0.00000 [  1       1    ] 0.00000 [  1       1    ] 0.00000
 [  1       1    ] 0.00000 [  1       1    ] 0.00000 [  1       1    ] 0.00000
 [  1       1    ] 0.00000 [  1       1    ] 0.00000 [  1       1    ] 0.00000
 -----------------------------------------------------------------------------
 Norm of T1AA vector (        7 symmetry allowed elements):  0.0024000656.
 -----------------------------------------------------------------------------
 Largest T2 amplitudes for spin case AB:
        _       _                 _       _                 _       _
    i   j   a   b             i   j   a   b             i   j   a   b
 -----------------------------------------------------------------------------
 [  1   1   3   3]-0.04076 [  1   1  10  10]-0.02387 [  1   1  13  13]-0.02387
 [  1   1  18  18]-0.02387 [  1   1   6   3]-0.02036 [  1   1   3   6]-0.02036
 [  1   1   6   6]-0.02017 [  1   1   3   2]-0.01893 [  1   1   2   3]-0.01893
 [  1   1  10   9] 0.01463 [  1   1   9  10] 0.01463 [  1   1  13  12] 0.01463
 [  1   1  12  13] 0.01463 [  1   1  18  17] 0.01463 [  1   1  17  18] 0.01463
 -----------------------------------------------------------------------------
 Norm of T2AB vector (       88 symmetry allowed elements):  0.0898217256.
 -----------------------------------------------------------------------------
 CPU: This iteration required        0.0 seconds.
 Iteration Nr. 6
 Generation of Intermediates required        0.0 seconds.
 Construction of Hbar(ab,ij) and Hbar(a,i) required   0.0 seconds.
 Amplitude changes are:
 -------------------------------------------------------------------
              Spin      RMS          Max.      Max. change for
  Amplitude   Case     Change       Change       i    j    a    b
 -------------------------------------------------------------------
     T1        AA    0.0000001784-0.0000009431    1         2
     T2        AB    0.0000000138-0.0000007107    1    1    2    2
 -------------------------------------------------------------------
 The total correlation energy is -0.039414484061 a.u.
 Convergence information after     6 iterations: 
 Largest element of residual vector : -0.94307511E-06.
 Largest element of DIIS residual   :  0.35847675E-06.
 CPU: This iteration required        0.0 seconds.
 Iteration Nr. 7
 Generation of Intermediates required        0.0 seconds.
 Construction of Hbar(ab,ij) and Hbar(a,i) required   0.0 seconds.
 Amplitude changes are:
 -------------------------------------------------------------------
              Spin      RMS          Max.      Max. change for
  Amplitude   Case     Change       Change       i    j    a    b
 -------------------------------------------------------------------
     T1        AA    0.0000000218-0.0000001154    1         2
     T2        AB    0.0000000019 0.0000000729    1    1    3    3
 -------------------------------------------------------------------
 The total correlation energy is -0.039414491892 a.u.
 Convergence information after     7 iterations: 
 Largest element of residual vector : -0.11535612E-06.
 Largest element of DIIS residual   :  0.31748393E-07.
 Amplitude equations converged in     7 iterations.
 The total correlation energy is -0.039414498644 a.u.
 Summary of iterative solution of CC equations 
 -----------------------------------------------------------
                 Correlation           Total
  Iteration        Energy              Energy
 -----------------------------------------------------------
      0     -0.0336208150037715    -2.894804241119   DIIS 
      1     -0.0382594629514337    -2.899442889067   DIIS 
      2     -0.0391495258078081    -2.900332951923   DIIS 
      3     -0.0394068843944317    -2.900590310510   DIIS 
      4     -0.0394150784480597    -2.900598504564   DIIS 
      5     -0.0394146216345162    -2.900598047750   DIIS 
      6     -0.0394144840614119    -2.900597910177   DIIS 
      7     -0.0394144986437861    -2.900597924759   DIIS 
 -----------------------------------------------------------
 A miracle come to pass. The CC iterations have converged.
 
  HF-SCF energy              :      -2.861183426116
  CCSD correlation energy    :      -0.039414498644
  Total CCSD energy          :      -2.900597924759
 
  @CHECKOUT-I, Total execution time :       0.0000 seconds.
                0.00 seconds walltime passed
 --executable xecc finished with status            0


  Variable Map:
  ----------------------------------------------------------------------------
  "CBS CORRELATION ENERGY"     =>      -0.045828010158
  "CBS REFERENCE ENERGY"       =>      -1.102459706123
  "CBS TOTAL ENERGY"           =>      -1.148287716281
  "CCSD CORRELATION ENERGY"    =>      -0.039414498644
  "CCSD TOTAL ENERGY"          =>      -2.900597924759
  "CURRENT CORRELATION ENERGY" =>      -0.039414498644
  "CURRENT ENERGY"             =>      -2.900597924759
  "CURRENT REFERENCE ENERGY"   =>      -2.861183426116
  "HF TOTAL ENERGY"            =>      -2.861521995339
  "MP2 CORRELATION ENERGY"     =>      -0.033620815004
  "MP2 OPPOSITE-SPIN ENERGY"   =>      -0.033620815004
  "MP2 SAME-SPIN ENERGY"       =>       0.000000000000
  "MP2 TOTAL ENERGY"           =>      -2.894804241119
  "NUCLEAR REPULSION ENERGY"   =>       0.000000000000
  "ONE-ELECTRON ENERGY"        =>      -3.887179072055
  "SCF DIPOLE X"               =>       0.000000000000
  "SCF DIPOLE Y"               =>       0.000000000000
  "SCF DIPOLE Z"               =>       0.000000000000
  "SCF ITERATION ENERGY"       =>      -2.861521995339
  "SCF TOTAL ENERGY"           =>      -2.861183426116
  "TWO-ELECTRON ENERGY"        =>       1.025657076715



  //>>>>>>>>>>>>>>>>>>>>>>>>>>>>>>>>>>>//
  //            CBS Results            //
  //<<<<<<<<<<<<<<<<<<<<<<<<<<<<<<<<<<<//


   ==> scf_xtpl_helgaker_3 <==

   LO-zeta (2) Correlation Energy:       -2.85570467
   MD-zeta (3) Correlation Energy:       -2.86118343
   HI-zeta (4) Correlation Energy:       -2.86152200
   Extrapolated Correlation Energy:      -2.86154430
   Alpha (exponent) Value:                2.78390521
   Beta (coefficient) Value:              1.52916568

   ==> corl_xtpl_helgaker_2 <==

   LO-zeta (2) Correlation Energy:       -0.03384382
   HI-zeta (3) Correlation Energy:       -0.03941450
   Extrapolated Correlation Energy:      -0.04176005
   Beta (coefficient) Value:              0.06332985

   ==> Components <==

  ---------------------------------------------------------------------------------------------------------
                          Method / Basis                      Rqd       Energy [H]   Variable
  ---------------------------------------------------------------------------------------------------------
                             scf / aug-cc-pvqz                  *      -2.86152200   SCF TOTAL ENERGY
                         c4-ccsd / aug-cc-pvdz                  *      -0.03384382   CCSD CORRELATION ENERGY
                          c4-mp2 / aug-cc-pvdz                         -0.02696251   MP2 CORRELATION ENERGY
                          c4-scf / aug-cc-pvdz                         -2.85570467   SCF TOTAL ENERGY
                         c4-ccsd / aug-cc-pvtz                  *      -0.03941450   CCSD CORRELATION ENERGY
                          c4-mp2 / aug-cc-pvtz                         -0.03362082   MP2 CORRELATION ENERGY
                          c4-scf / aug-cc-pvtz                         -2.86118343   SCF TOTAL ENERGY
  ---------------------------------------------------------------------------------------------------------

   ==> Stages <==

  ---------------------------------------------------------------------------------------------------------
      Stage               Method / Basis                       Wt       Energy [H]   Scheme
  ---------------------------------------------------------------------------------------------------------
        scf                  scf / aug-cc-pv[dtq]z              1      -2.86154430   scf_xtpl_helgaker_3
       corl              c4-ccsd / aug-cc-pv[dt]z               1      -0.04176005   corl_xtpl_helgaker_2
  ---------------------------------------------------------------------------------------------------------

   ==> CBS <==

  ---------------------------------------------------------------------------------------------------------
      Stage               Method / Basis                                Energy [H]   Scheme
  ---------------------------------------------------------------------------------------------------------
        scf                  scf / aug-cc-pv[dtq]z                     -2.86154430   scf_xtpl_helgaker_3
       corl              c4-ccsd / aug-cc-pv[dt]z                      -0.04176005   corl_xtpl_helgaker_2
      total                  CBS                                       -2.90330434   
  ---------------------------------------------------------------------------------------------------------

*** PSI4 exiting successfully. Buy a developer a beer!
