
    -----------------------------------------------------------------------
          Psi4: An Open-Source Ab Initio Electronic Structure Package
                               Psi4 1.1rc3.dev5 

                         Git: Rev {master} 3fbd859 


    R. M. Parrish, L. A. Burns, D. G. A. Smith, A. C. Simmonett,
    A. E. DePrince III, E. G. Hohenstein, U. Bozkaya, A. Yu. Sokolov,
    R. Di Remigio, R. M. Richard, J. F. Gonthier, A. M. James,
    H. R. McAlexander, A. Kumar, M. Saitow, X. Wang, B. P. Pritchard,
    P. Verma, H. F. Schaefer III, K. Patkowski, R. A. King, E. F. Valeev,
    F. A. Evangelista, J. M. Turney, T. D. Crawford, and C. D. Sherrill,
    J. Chem. Theory Comput. in press (2017).
    (doi: 10.1021/acs.jctc.7b00174)

    -----------------------------------------------------------------------


    Psi4 started on: Monday, 15 May 2017 03:37PM

    Process ID:  14593
    PSIDATADIR: /home/psilocaluser/gits/hrw-direct/objdir4/stage/usr/local/psi4/share/psi4
    Memory:     500.0 MiB
    Threads:    1
    
  ==> Input File <==

--------------------------------------------------------------------------
#! Patch of a glycine with a methyl group, to make alanine, then DF-SCF 
#! energy calculation with the cc-pVDZ basis set

eNuc =  256.652780316346650  #TEST
eSCF = -321.8674683375353425 #TEST

molecule alanine {
    N           -1.527107413251     0.745960643462     0.766603000356
    C           -0.075844098953     0.811790225041     0.711418672248
    C            0.503195220163    -0.247849447550    -0.215671574613
    O           -0.351261319421    -0.748978309671    -1.089590304723
    O            1.639498336738    -0.571249748886    -0.174705953194
    H           -1.207655674855    -0.365913941094    -0.918035522052
    # First, remove the H from the alpha carbon.  This line could be deleted
    # and is only included for completeness
    #H            0.429560656538     0.717651915252     1.673774709694
    # Now patch it, using a Z Matrix specification.  This patch can be applied
    # anywhere in the coord specification, as long as it appears lower than
    # the atoms referenced, as is usual for Z-Matrices
    C  2  rCC   3  aCCC   1  dCCCN
    H  7  rCH1  2  aHCC1  3  dHCCC1
    H  7  rCH2  2  aHCC2  3  dHCCC2
    H  7  rCH3  2  aHCC3  3  dHCCC3
    H            0.221781602033     1.772570540211     0.286988509018
    H           -1.833601608592     0.108401996052     1.481873213172
    H           -1.925572581453     1.640882152784     0.986471814808
    
    aCCC = 108.0
    rCC = 1.4
    dCCCN = 120
    rCH1 = 1.08
    rCH2 = 1.08
    rCH3 = 1.08
    aHCC1 = 109.0
    aHCC2 = 109.0
    aHCC3 = 109.0
    dHCCC1 = 0.0
    dHCCC2 = 120.0
    dHCCC3 = 240.0
}

alanine.update_geometry()      # Test the nuclear repulsion energy, before SCF           #TEST
compare_values(eNuc, alanine.nuclear_repulsion_energy(), 9, "Nuclear repulsion energy")  #TEST 

set  {
    basis cc-pVDZ
    scf_type df
}
 
E = energy('scf')

compare_values(eSCF, E, 6, "cc-pVDZ DF-SCF Energy")                                      #TEST 
--------------------------------------------------------------------------
	Nuclear repulsion energy..........................................PASSED

*** tstart() called on psinet
*** at Mon May 15 15:37:12 2017

   => Loading Basis Set <=

    Name: CC-PVDZ
    Role: ORBITAL
    Keyword: BASIS
    atoms 1       entry N          line   160 file /home/psilocaluser/gits/hrw-direct/objdir4/stage/usr/local/psi4/share/psi4/basis/cc-pvdz.gbs 
    atoms 2-3, 7  entry C          line   130 file /home/psilocaluser/gits/hrw-direct/objdir4/stage/usr/local/psi4/share/psi4/basis/cc-pvdz.gbs 
    atoms 4-5     entry O          line   190 file /home/psilocaluser/gits/hrw-direct/objdir4/stage/usr/local/psi4/share/psi4/basis/cc-pvdz.gbs 
    atoms 6, 8-13 entry H          line    20 file /home/psilocaluser/gits/hrw-direct/objdir4/stage/usr/local/psi4/share/psi4/basis/cc-pvdz.gbs 

    There are an even number of electrons - assuming singlet.
    Specify the multiplicity in the molecule input block.


         ---------------------------------------------------------
                                   SCF
            by Justin Turney, Rob Parrish, and Andy Simmonett
                              RHF Reference
                        1 Threads,    500 MiB Core
         ---------------------------------------------------------

  ==> Geometry <==

    Molecular point group: c1
    Full point group: C1

    Geometry (in Angstrom), charge = 0, multiplicity = 1:

       Center              X                  Y                   Z               Mass       
    ------------   -----------------  -----------------  -----------------  -----------------
           N         -1.601081445661     0.655785222848     0.438187544182    14.003074004780
           C         -0.149818131363     0.721614804427     0.383003216074    12.000000000000
           C          0.429221187753    -0.338024868164    -0.544087030787    12.000000000000
           O         -0.425235351831    -0.839153730285    -1.418005760897    15.994914619560
           O          1.565524304328    -0.661425169500    -0.503121409368    15.994914619560
           H         -1.281629707265    -0.456089361708    -1.246450978226     1.007825032070
           C          0.367172830472     0.503483385831     1.665632948149    12.000000000000
           H          1.027930915859    -0.350348346362     1.637881809483     1.007825032070
           H          0.912752123961     1.381357401053     1.978810929358     1.007825032070
           H         -0.449633712444     0.315088299547     2.346613390536     1.007825032070
           H          0.147807569623     1.682395119597    -0.041426947156     1.007825032070
           H         -1.907575641002     0.018226575438     1.153457756998     1.007825032070
           H         -1.999546613863     1.550706732170     0.658056358634     1.007825032070

  Running in c1 symmetry.

  Rotational constants: A =      0.17855  B =      0.11767  C =      0.07638 [cm^-1]
  Rotational constants: A =   5352.65243  B =   3527.51061  C =   2289.80507 [MHz]
  Nuclear repulsion =  256.652780316346536

  Charge       = 0
  Multiplicity = 1
  Electrons    = 48
  Nalpha       = 24
  Nbeta        = 24

  ==> Algorithm <==

  SCF Algorithm Type is DF.
  DIIS enabled.
  MOM disabled.
  Fractional occupation disabled.
  Guess Type is SAD.
  Energy threshold   = 1.00e-06
  Density threshold  = 1.00e-06
  Integral threshold = 0.00e+00

  ==> Primary Basis <==

  Basis Set: CC-PVDZ
    Blend: CC-PVDZ
    Number of shells: 57
    Number of basis function: 119
    Number of Cartesian functions: 125
    Spherical Harmonics?: true
    Max angular momentum: 2

   => Loading Basis Set <=

    Name: (CC-PVDZ AUX)
    Role: JKFIT
    Keyword: DF_BASIS_SCF
    atoms 1       entry N          line   170 file /home/psilocaluser/gits/hrw-direct/objdir4/stage/usr/local/psi4/share/psi4/basis/cc-pvdz-jkfit.gbs 
    atoms 2-3, 7  entry C          line   120 file /home/psilocaluser/gits/hrw-direct/objdir4/stage/usr/local/psi4/share/psi4/basis/cc-pvdz-jkfit.gbs 
    atoms 4-5     entry O          line   220 file /home/psilocaluser/gits/hrw-direct/objdir4/stage/usr/local/psi4/share/psi4/basis/cc-pvdz-jkfit.gbs 
    atoms 6, 8-13 entry H          line    50 file /home/psilocaluser/gits/hrw-direct/objdir4/stage/usr/local/psi4/share/psi4/basis/cc-pvdz-jkfit.gbs 

  ==> Pre-Iterations <==

   -------------------------------------------------------
    Irrep   Nso     Nmo     Nalpha   Nbeta   Ndocc  Nsocc
   -------------------------------------------------------
     A        119     119       0       0       0       0
   -------------------------------------------------------
    Total     119     119      24      24      24       0
   -------------------------------------------------------

  ==> Integral Setup <==

  ==> DFJK: Density-Fitted J/K Matrices <==

    J tasked:                  Yes
    K tasked:                  Yes
    wK tasked:                  No
    OpenMP threads:              1
    Integrals threads:           1
    Memory (MB):               375
    Algorithm:                Core
    Integral Cache:           NONE
    Schwarz Cutoff:          1E-12
    Fitting Condition:       1E-12

   => Auxiliary Basis Set <=

  Basis Set: (CC-PVDZ AUX)
    Blend: CC-PVDZ-JKFIT
    Number of shells: 207
    Number of basis function: 581
    Number of Cartesian functions: 661
    Spherical Harmonics?: true
    Max angular momentum: 3

  Minimum eigenvalue in the overlap matrix is 2.1519498568E-03.
  Using Symmetric Orthogonalization.

  SCF Guess: Superposition of Atomic Densities via on-the-fly atomic UHF.

  ==> Iterations <==

                           Total Energy        Delta E     RMS |[F,P]|

   @DF-RHF iter   0:  -324.73717557432451   -3.24737e+02   4.17928e-02 
   @DF-RHF iter   1:  -321.67931518998546    3.05786e+00   4.76061e-03 
   @DF-RHF iter   2:  -321.82878580019610   -1.49471e-01   2.38252e-03 DIIS
   @DF-RHF iter   3:  -321.86159527299759   -3.28095e-02   7.07574e-04 DIIS
   @DF-RHF iter   4:  -321.86668538711228   -5.09011e-03   2.42176e-04 DIIS
   @DF-RHF iter   5:  -321.86734849586242   -6.63109e-04   7.70270e-05 DIIS
   @DF-RHF iter   6:  -321.86744905825151   -1.00562e-04   3.13112e-05 DIIS
   @DF-RHF iter   7:  -321.86746575298434   -1.66947e-05   1.09973e-05 DIIS
   @DF-RHF iter   8:  -321.86746787699281   -2.12401e-06   4.35816e-06 DIIS
   @DF-RHF iter   9:  -321.86746829986106   -4.22868e-07   1.26564e-06 DIIS
   @DF-RHF iter  10:  -321.86746834716320   -4.73021e-08   4.72715e-07 DIIS

  ==> Post-Iterations <==

    Orbital Energies (a.u.)
    -----------------------

    Doubly Occupied:                                                      

       1A    -20.592714     2A    -20.532596     3A    -15.572717  
       4A    -11.368764     5A    -11.274542     6A    -11.216719  
       7A     -1.464302     8A     -1.366773     9A     -1.233593  
      10A     -1.049279    11A     -0.897168    12A     -0.814444  
      13A     -0.749941    14A     -0.694423    15A     -0.660482  
      16A     -0.634382    17A     -0.621420    18A     -0.595467  
      19A     -0.573821    20A     -0.537177    21A     -0.507829  
      22A     -0.465147    23A     -0.450691    24A     -0.408322  

    Virtual:                                                              

      25A      0.148972    26A      0.190094    27A      0.216637  
      28A      0.229205    29A      0.245908    30A      0.255927  
      31A      0.277648    32A      0.294002    33A      0.402376  
      34A      0.421570    35A      0.444018    36A      0.500029  
      37A      0.537573    38A      0.624595    39A      0.641838  
      40A      0.687249    41A      0.713021    42A      0.726749  
      43A      0.750940    44A      0.778883    45A      0.809330  
      46A      0.817744    47A      0.845873    48A      0.883862  
      49A      0.893913    50A      0.895385    51A      0.911569  
      52A      0.934372    53A      0.952605    54A      0.973046  
      55A      1.017477    56A      1.066670    57A      1.100635  
      58A      1.116923    59A      1.175640    60A      1.236303  
      61A      1.256262    62A      1.280727    63A      1.338137  
      64A      1.363665    65A      1.405367    66A      1.426658  
      67A      1.493898    68A      1.525817    69A      1.552164  
      70A      1.624790    71A      1.638287    72A      1.686567  
      73A      1.698825    74A      1.724108    75A      1.763640  
      76A      1.811541    77A      1.839261    78A      1.882923  
      79A      1.907854    80A      1.939786    81A      1.955141  
      82A      1.980825    83A      1.999577    84A      2.059264  
      85A      2.093201    86A      2.118337    87A      2.138268  
      88A      2.185466    89A      2.216851    90A      2.223335  
      91A      2.303214    92A      2.390675    93A      2.399783  
      94A      2.409372    95A      2.430626    96A      2.461037  
      97A      2.547480    98A      2.573721    99A      2.633553  
     100A      2.677084   101A      2.724257   102A      2.801441  
     103A      2.828166   104A      2.880606   105A      2.897896  
     106A      2.954863   107A      3.009373   108A      3.046883  
     109A      3.099775   110A      3.174892   111A      3.215917  
     112A      3.373189   113A      3.400921   114A      3.520004  
     115A      3.593524   116A      3.754509   117A      3.808156  
     118A      3.942689   119A      4.185370  

    Final Occupation by Irrep:
              A 
    DOCC [    24 ]

  Energy converged.

  @DF-RHF Final Energy:  -321.86746834716320

   => Energetics <=

    Nuclear Repulsion Energy =            256.6527803163465364
    One-Electron Energy =                -948.4750596360955797
    Two-Electron Energy =                 369.9548109725857898
    DFT Exchange-Correlation Energy =       0.0000000000000000
    Empirical Dispersion Energy =           0.0000000000000000
    PCM Polarization Energy =               0.0000000000000000
    EFP Energy =                            0.0000000000000000
    Total Energy =                       -321.8674683471631965



Properties will be evaluated at   0.000000,   0.000000,   0.000000 Bohr

Properties computed using the SCF density matrix

  Nuclear Dipole Moment: (a.u.)
     X:    -3.3178      Y:     3.8733      Z:     6.0708

  Electronic Dipole Moment: (a.u.)
     X:     1.9000      Y:    -2.7749      Z:    -5.0762

  Dipole Moment: (a.u.)
     X:    -1.4177      Y:     1.0983      Z:     0.9946     Total:     2.0507

  Dipole Moment: (Debye)
     X:    -3.6035      Y:     2.7917      Z:     2.5280     Total:     5.2125


*** tstop() called on psinet at Mon May 15 15:37:16 2017
Module time:
	user time   =       4.01 seconds =       0.07 minutes
	system time =       0.08 seconds =       0.00 minutes
	total time  =          4 seconds =       0.07 minutes
Total time:
	user time   =       4.01 seconds =       0.07 minutes
	system time =       0.08 seconds =       0.00 minutes
	total time  =          4 seconds =       0.07 minutes
	cc-pVDZ DF-SCF Energy.............................................PASSED

*** Psi4 exiting successfully. Buy a developer a beer!
