    -----------------------------------------------------------------------
          PSI4: An Open-Source Ab Initio Electronic Structure Package
                              PSI 4.0.0-beta1 Driver

    J. M. Turney, A. C. Simmonett, R. M. Parrish, E. G. Hohenstein,
    F. Evangelista, J. T. Fermann, B. J. Mintz, L. A. Burns, J. J. Wilke,
    M. L. Abrams, N. J. Russ, M. L. Leininger, C. L. Janssen, E. T. Seidl,
    W. D. Allen, H. F. Schaefer, R. A. King, E. F. Valeev, C. D. Sherrill,
    and T. D. Crawford, WIREs Comput. Mol. Sci., (2011) (doi: 10.1002/wcms.93)

                         Additional Contributions by
    A. E. DePrince, M. Saitow, U. Bozkaya, A. Yu. Sokolov
    -----------------------------------------------------------------------


    Using LocalCommunicator (Number of processes = 1)

    Memory level set to 256.000 MB

  ==> Input File <==

--------------------------------------------------------------------------
#! UHF-CCSD/cc-pVDZ 3B1 CH2 geometry optimization via analytic gradients

memory 250 mb

refnuc   =   6.07006654183091   #TEST
refscf   = -38.92658702693478   #TEST
refccsd  =  -0.11533612150975   #TEST
reftotal = -39.04192314844453   #TEST

molecule ch2 {
  0 3
  C
  H 1 1.1
  H 1 1.1 2 109.0
}

set globals {
  reference uhf
  basis cc-pvdz
  # The next 3 options control the geometry optimization tolerances
  max_disp_g_convergence  1e-6
  max_force_g_convergence 1.0e-6
  max_energy_g_convergence    7
  e_convergence 10
  d_convergence 10
}

optimize('CCSD')

compare_values(refnuc,   ch2.nuclear_repulsion_energy(),          5, "Nuclear repulsion energy")  #TEST
compare_values(refscf,   get_variable("SCF total energy"),        6, "SCF energy")                #TEST
compare_values(refccsd,  get_variable("CCSD correlation energy"), 6, "CCSD contribution")         #TEST
compare_values(reftotal, get_variable("Current energy"),          6, "Total energy")              #TEST
--------------------------------------------------------------------------

  Memory set to 250.000 MiB by Python script.

*** tstart() called on QuickSilver.local
*** at Mon Jan 23 14:55:54 2012


         ---------------------------------------------------------
                                   SCF
            by Justin Turney, Rob Parrish, and Andy Simmonett
                              UHF Reference
                        1 Threads,    250 MiB Core
         ---------------------------------------------------------

  ==> Geometry <==

    Molecular point group: c2v

    Geometry (in Angstrom), charge = 0, multiplicity = 3:

       Center              X                  Y                   Z       
    ------------   -----------------  -----------------  -----------------
           C          0.000000000000     0.000000000000    -0.091864689759
           H          0.000000000000    -0.895527070192     0.546908561523
           H         -0.000000000000     0.895527070192     0.546908561523

    Number of unique atoms: 2

    Atoms equivalency:
       unique atom 0: 0 
       unique atom 1: 1 2 

  Running in c2v symmetry.

  Nuclear repulsion =    6.068298005568227

  Charge       = 0
  Multiplicity = 3
  Electrons    = 8
  Nalpha       = 5
  Nbeta        = 3

  ==> Algorithm <==

  SCF Algorithm Type is PK.
  DIIS enabled.
  MOM disabled.
  Fractional occupation disabled.
  Guess Type is CORE.
  Energy threshold   = 1.00e-10
  Density threshold  = 1.00e-10
  Integral threshold = 0.00e+00

  ==> Primary Basis: CC-PVDZ <==

  Basis Set
    Number of shells: 12
    Number of basis function: 24
    Number of Cartesian functions: 25
    Spherical Harmonics?: true
    Max angular momentum: 2

  ==> Pre-Iterations <==

  Minimum eigenvalue in the overlap matrix is 2.9429630952E-02.
  Using Symmetric Orthogonalization.
  SCF Guess: Core (One-Electron) Hamiltonian.

  Initial UHF energy:   -28.44231976508354

   -------------------------------------------------------
    Irrep   Nso     Nmo     Nalpha   Nbeta   Ndocc  Nsocc
   -------------------------------------------------------
     A1        11      11       3       2       2       1
     A2         2       2       0       0       0       0
     B1         4       4       1       0       0       1
     B2         7       7       1       1       1       0
   -------------------------------------------------------
    Total      24      24       5       3       3       2
   -------------------------------------------------------

  ==> Integral Setup <==

 MINTS: Wrapper to libmints.
   by Justin Turney

   Calculation information:
      Number of atoms:                   3
      Number of AO shells:              12
      Number of SO shells:               9
      Number of primitives:             32
      Number of atomic orbitals:        25
      Number of basis functions:        24

      Number of irreps:                  4
      Number of functions per irrep: [  11    2    4    7 ]

      Overlap, kinetic, potential, dipole, and quadrupole integrals
        stored in file 35.

      Computing two-electron integrals...done
      Computed 11412 non-zero two-electron integrals.
        Stored in file 33.

  ==> Iterations <==

                        Total Energy        Delta E     Density RMS

   @UHF iter   1:   -35.12226710194874   -6.67995e+00   0.00000e+00 
   @UHF iter   2:   -38.07619874146306   -2.95393e+00   2.47446e-01 DIIS
   @UHF iter   3:   -38.90113807687993   -8.24939e-01   1.43608e-01 DIIS
   @UHF iter   4:   -38.91579874172635   -1.46607e-02   1.40301e-02 DIIS
   @UHF iter   5:   -38.91721660276711   -1.41786e-03   4.09345e-03 DIIS
   @UHF iter   6:   -38.91736784949018   -1.51247e-04   9.92689e-04 DIIS
   @UHF iter   7:   -38.91737833035364   -1.04809e-05   1.86054e-04 DIIS
   @UHF iter   8:   -38.91737865537387   -3.25020e-07   2.06014e-05 DIIS
   @UHF iter   9:   -38.91737868524731   -2.98734e-08   4.77149e-06 DIIS
   @UHF iter  10:   -38.91737869162037   -6.37306e-09   2.80955e-06 DIIS
   @UHF iter  11:   -38.91737869222851   -6.08139e-10   1.05150e-06 DIIS
   @UHF iter  12:   -38.91737869225135   -2.28368e-11   2.88962e-07 DIIS
   @UHF iter  13:   -38.91737869225204   -6.96332e-13   5.56010e-08 DIIS
   @UHF iter  14:   -38.91737869225204    0.00000e+00   1.19272e-08 DIIS
   @UHF iter  15:   -38.91737869225206   -1.42109e-14   1.11288e-09 DIIS
   @UHF iter  16:   -38.91737869225209   -2.84217e-14   2.42702e-10 DIIS

  ==> Post-Iterations <==

	Orbital Energies (a.u.)
	-----------------------

	Alpha Occupied:                                                       

	   1A1   -11.279808     2A1    -0.948183     1B2    -0.574840  
	   3A1    -0.492222     1B1    -0.413890  

	Alpha Virtual:                                                        

	   4A1     0.199574     2B2     0.255473     3B2     0.587217  
	   5A1     0.632444     2B1     0.650424     6A1     0.740599  
	   4B2     0.855150     7A1     1.006855     1A2     1.182747  
	   8A1     1.193228     3B1     1.244502     9A1     1.721416  
	   5B2     1.726796     6B2     1.928609     4B1     1.997867  
	   2A2     2.036720    10A1     2.315622    11A1     2.698261  
	   7B2     2.743850  

	Beta Occupied:                                                        

	   1A1   -11.228970     2A1    -0.783471     1B2    -0.535233  

	Beta Virtual:                                                         

	   3A1     0.105281     1B1     0.159004     4A1     0.221021  
	   2B2     0.285269     3B2     0.620941     5A1     0.737973  
	   2B1     0.822031     6A1     0.832333     4B2     0.906448  
	   7A1     1.062088     1A2     1.257736     8A1     1.303650  
	   3B1     1.383571     5B2     1.732543     9A1     1.810140  
	   6B2     1.988311     4B1     2.039560     2A2     2.087798  
	  10A1     2.350790    11A1     2.720420     7B2     2.769588  

	Final Occupation by Irrep:
	         A1    A2    B1    B2 
	DOCC [     2,    0,    0,    1 ]
	SOCC [     1,    0,    1,    0 ]

  Energy converged.

  @UHF Final Energy:   -38.91737869225209

  ==> Properties <==
  Nuclear Dipole Moment: (a.u.)
     X:     0.0000      Y:     0.0000      Z:     1.0254

  Electronic Dipole Moment: (a.u.)
     X:     0.0000      Y:     0.0000      Z:    -0.7742

  Dipole Moment: (a.u.)
     X:     0.0000      Y:     0.0000      Z:     0.2512     Total:     0.2512

  Dipole Moment: (Debye)
     X:     0.0000      Y:     0.0000      Z:     0.6386     Total:     0.6386


  @Spin Contamination Metric:  0.01210
  @S^2 Expected:               2.00000
  @S^2 Observed:               2.01210

  Saving occupied orbitals to File 180.

*** tstop() called on QuickSilver.local at Mon Jan 23 14:55:54 2012
Module time:
	user time   =       0.09 seconds =       0.00 minutes
	system time =       0.01 seconds =       0.00 minutes
	total time  =          0 seconds =       0.00 minutes
Total time:
	user time   =       0.09 seconds =       0.00 minutes
	system time =       0.01 seconds =       0.00 minutes
	total time  =          0 seconds =       0.00 minutes

*** tstart() called on QuickSilver.local
*** at Mon Jan 23 14:55:54 2012


	**************************************************
	* TRANSQT2: Program to transform integrals from  *
	*           the SO basis to the MO basis.        *
	*                                                *
	*            Daniel, David, & Justin             *
	**************************************************


	Input parameters:
	-----------------
	Wave function   =	CCSD
	Backtransform   =	No
	Print Level     =	1
	Print TEIs      =	No
	Reference wfn   =	UHF
	Derivative      =	First
	Delete TEI File =	Yes
	Memory (Mbytes) =	250.0
	Cache Level     =	2
	Cache Type      =	LRU
	Chkpt Parameters:
	--------------------
	Number of irreps     = 4
	Number of SOs        = 24
	Number of MOs        = 24
	Number of active MOs = 24

	Label	# SOs	# FZDC	# DOCC	# SOCC	# VIRT	# FZVR
	-----	-----	------	------	------	------	------
	 A1	   11	    0	    2	    1	    8	    0
	 A2	   2	    0	    0	    0	    2	    0
	 B1	   4	    0	    0	    1	    3	    0
	 B2	   7	    0	    1	    0	    6	    0

	Nuclear Rep. energy (chkpt) =      6.06829800556823
	SCF energy          (chkpt) =    -38.91737869225209

	Presorting SO-basis two-electron integrals.
	Sorting File: SO Ints (pq,rs) nbuckets = 1
	Frozen-core energy =    0.000000000000000
	Starting AA/AB first half-transformation.
	Sorting AA/AB half-transformed integrals.
	Starting AA second half-transformation.
	Starting AB second half-transformation.
	Starting BB first half-transformation.
	Sorting BB half-transformed integrals.
	Starting BB second half-transformation.
	Two-electron integral transformation complete.

*** tstop() called on QuickSilver.local at Mon Jan 23 14:55:54 2012
Module time:
	user time   =       0.02 seconds =       0.00 minutes
	system time =       0.02 seconds =       0.00 minutes
	total time  =          0 seconds =       0.00 minutes
Total time:
	user time   =       0.11 seconds =       0.00 minutes
	system time =       0.03 seconds =       0.00 minutes
	total time  =          0 seconds =       0.00 minutes

*** tstart() called on QuickSilver.local
*** at Mon Jan 23 14:55:54 2012


			**************************
			*                        *
			*         CCSORT         *
			*                        *
			**************************


	Input parameters:
	-----------------
	Wave function   =	CCSD
	Reference wfn   =	UHF
	Derivative      =	First
	Memory (Mbytes) =	250.0
	AO Basis        =	NONE
	Make (ab|cd)    =	True
	Make unpacked (ab|cd) =	True
	Cache Level     =	2
	Cache Type      =	LRU
	Local CC        =     No


	Chkpt Parameters:
	--------------------
	Number of irreps     = 4
	Number of MOs        = 24
	Number of active MOs = 24

	Label	# MOs	# FZDC	# DOCC	# SOCC	# VIRT	# FZVR
	-----	-----	------	------	------	------	------
	 A1	   11	    0	    2	    1	    8	    0
	 A2	   2	    0	    0	    0	    2	    0
	 B1	   4	    0	    0	    1	    3	    0
	 B2	   7	    0	    1	    0	    6	    0

	Nuclear Rep. energy (chkpt) =      6.06829800556823
	SCF energy          (chkpt) =    -38.91737869225209

	Size of irrep 0 of <AB|CD> integrals:      0.002 (MW) /      0.018 (MB)
	Size of irrep 1 of <AB|CD> integrals:      0.001 (MW) /      0.009 (MB)
	Size of irrep 2 of <AB|CD> integrals:      0.001 (MW) /      0.010 (MB)
	Size of irrep 3 of <AB|CD> integrals:      0.003 (MW) /      0.023 (MB)
	Total:                                     0.008 (MW) /      0.061 (MB)

	Size of irrep 0 of <ab|cd> integrals:      0.003 (MW) /      0.027 (MB)
	Size of irrep 1 of <ab|cd> integrals:      0.002 (MW) /      0.014 (MB)
	Size of irrep 2 of <ab|cd> integrals:      0.002 (MW) /      0.018 (MB)
	Size of irrep 3 of <ab|cd> integrals:      0.004 (MW) /      0.031 (MB)
	Total:                                     0.011 (MW) /      0.090 (MB)

	Size of irrep 0 of <Ab|Cd> integrals:      0.015 (MW) /      0.123 (MB)
	Size of irrep 1 of <Ab|Cd> integrals:      0.006 (MW) /      0.046 (MB)
	Size of irrep 2 of <Ab|Cd> integrals:      0.007 (MW) /      0.055 (MB)
	Size of irrep 3 of <Ab|Cd> integrals:      0.013 (MW) /      0.108 (MB)
	Total:                                     0.041 (MW) /      0.332 (MB)

	Size of irrep 0 of <IA|BC> integrals:      0.004 (MW) /      0.030 (MB)
	Size of irrep 1 of <IA|BC> integrals:      0.001 (MW) /      0.008 (MB)
	Size of irrep 2 of <IA|BC> integrals:      0.001 (MW) /      0.011 (MB)
	Size of irrep 3 of <IA|BC> integrals:      0.003 (MW) /      0.024 (MB)
	Total:                                     0.009 (MW) /      0.073 (MB)

	Size of irrep 0 of <ia|bc> integrals:      0.003 (MW) /      0.026 (MB)
	Size of irrep 1 of <ia|bc> integrals:      0.001 (MW) /      0.005 (MB)
	Size of irrep 2 of <ia|bc> integrals:      0.001 (MW) /      0.008 (MB)
	Size of irrep 3 of <ia|bc> integrals:      0.003 (MW) /      0.021 (MB)
	Total:                                     0.008 (MW) /      0.060 (MB)

	Size of irrep 0 of <Ia|Bc> integrals:      0.005 (MW) /      0.037 (MB)
	Size of irrep 1 of <Ia|Bc> integrals:      0.001 (MW) /      0.010 (MB)
	Size of irrep 2 of <Ia|Bc> integrals:      0.002 (MW) /      0.015 (MB)
	Size of irrep 3 of <Ia|Bc> integrals:      0.003 (MW) /      0.027 (MB)
	Total:                                     0.011 (MW) /      0.089 (MB)

	Size of irrep 0 of <iA|bC> integrals:      0.003 (MW) /      0.022 (MB)
	Size of irrep 1 of <iA|bC> integrals:      0.001 (MW) /      0.004 (MB)
	Size of irrep 2 of <iA|bC> integrals:      0.001 (MW) /      0.005 (MB)
	Size of irrep 3 of <iA|bC> integrals:      0.002 (MW) /      0.019 (MB)
	Total:                                     0.006 (MW) /      0.050 (MB)

	Size of irrep 0 of tIjAb amplitudes:       0.001 (MW) /      0.007 (MB)
	Size of irrep 1 of tIjAb amplitudes:       0.000 (MW) /      0.001 (MB)
	Size of irrep 2 of tIjAb amplitudes:       0.000 (MW) /      0.001 (MB)
	Size of irrep 3 of tIjAb amplitudes:       0.001 (MW) /      0.005 (MB)
	Total:                                     0.002 (MW) /      0.014 (MB)


	Sorting File: A <IJ|KL> nbuckets = 1
	Sorting File: B <AB|CD> nbuckets = 1
	Sorting File: C <IA|JB> nbuckets = 1
	Sorting File: D <IJ|AB> nbuckets = 1
	Sorting File: E <AI|JK> nbuckets = 1
	Sorting File: F <IA|BC> nbuckets = 1
	Sorting File: F <AI|BC> nbuckets = 1
	Sorting File: A <ij|kl> nbuckets = 1
	Sorting File: B <ab|cd> nbuckets = 1
	Sorting File: C <ia|jb> nbuckets = 1
	Sorting File: D <ij|ab> nbuckets = 1
	Sorting File: E <ai|jk> nbuckets = 1
	Sorting File: F <ia|bc> nbuckets = 1
	Sorting File: F <ai|bc> nbuckets = 1
	Sorting File: A <Ij|Kl> nbuckets = 1
	Sorting File: B <Ab|Cd> nbuckets = 1
	Sorting File: C <Ia|Jb> nbuckets = 1
	Sorting File: C <Ai|Bj> nbuckets = 1
	Sorting File: D <Ij|Ab> nbuckets = 1
	Sorting File: E <Ai|Jk> nbuckets = 1
	Sorting File: E <Ij|Ka> nbuckets = 1
	Sorting File: F <Ia|Bc> nbuckets = 1
	Sorting File: F <aI|bC> nbuckets = 1
	Sorting File: F <Ab|Ci> nbuckets = 1
	Sorting File: F <Ai|Bc> nbuckets = 1
	One-electron energy          =    -63.71473595344825
	Two-electron (AA) energy     =      5.37013793538065
	Two-electron (BB) energy     =      1.64169186761281
	Two-electron (AB) energy     =     11.71722945263451
	Two-electron energy          =     18.72905925562797
	Frozen-core energy (transqt) =      0.00000000000000
	Reference energy             =    -38.91737869225204

*** tstop() called on QuickSilver.local at Mon Jan 23 14:55:55 2012
Module time:
	user time   =       0.04 seconds =       0.00 minutes
	system time =       0.08 seconds =       0.00 minutes
	total time  =          1 seconds =       0.02 minutes
Total time:
	user time   =       0.15 seconds =       0.00 minutes
	system time =       0.11 seconds =       0.00 minutes
	total time  =          1 seconds =       0.02 minutes

*** tstart() called on QuickSilver.local
*** at Mon Jan 23 14:55:55 2012

			**************************
			*                        *
			*        CCENERGY        *
			*                        *
			**************************

	Nuclear Rep. energy (chkpt)   =    6.068298005568227
	SCF energy          (chkpt)   =  -38.917378692252086
	Reference energy    (file100) =  -38.917378692252043

	Input parameters:
	-----------------
	Wave function   =     CCSD
	Reference wfn   =     UHF
	Memory (Mbytes) =     250.0
	Maxiter         =     50
	Convergence     =     1.0e-07
	Restart         =     No
	DIIS            =     Yes
	AO Basis        =     NONE
	ABCD            =     NEW
	Cache Level     =     2
	Cache Type      =     LRU
	Print Level     =     1
	Num. of threads =     1
	# Amps to Print =     10
	Print MP2 Amps? =     No
	Analyze T2 Amps =     No
	Print Pair Ener =     No
	Local CC        =     No
	SCS-MP2         =     False
	SCSN-MP2        =     False
	SCS-CCSD        =     False

	            Solving CC Amplitude Equations
	            ------------------------------
  Iter             Energy              RMS        T1Diag      D1Diag    New D1Diag
  ----     ---------------------    ---------   ----------  ----------  ----------
     0        -0.095353982824164    0.000e+00    0.000000    0.000000    0.000000
     1        -0.110266544130052    3.737e-02    0.005013    0.000000    0.000000
     2        -0.114891353546457    1.453e-02    0.008836    0.000000    0.000000
     3        -0.115324840712578    5.355e-03    0.010951    0.000000    0.000000
     4        -0.115365473982551    1.590e-03    0.011467    0.000000    0.000000
     5        -0.115363321852963    4.133e-04    0.011469    0.000000    0.000000
     6        -0.115368451641652    1.485e-04    0.011447    0.000000    0.000000
     7        -0.115368914697639    5.418e-05    0.011431    0.000000    0.000000
     8        -0.115368689785973    1.449e-05    0.011427    0.000000    0.000000
     9        -0.115368894186923    3.829e-06    0.011426    0.000000    0.000000
    10        -0.115368896103091    1.230e-06    0.011426    0.000000    0.000000
    11        -0.115368878024599    2.944e-07    0.011426    0.000000    0.000000
    12        -0.115368880685088    7.396e-08    0.011426    0.000000    0.000000

	Iterations converged.


	Largest TIA Amplitudes:
	          1   0        -0.0061202781
	          4  13        -0.0055757551
	          1   2        -0.0053728913
	          1   1         0.0045269857
	          3  10        -0.0044643238
	          4  17         0.0042945245
	          3  11        -0.0042615577
	          4  14         0.0041869453
	          2   1        -0.0034574949
	          2   4        -0.0033930101

	Largest Tia Amplitudes:
	          1   0         0.0201527715
	          1   2         0.0108376320
	          2  17         0.0099808157
	          2  15         0.0066459885
	          2  19         0.0061259552
	          1   6        -0.0055673807
	          1   4        -0.0049145444
	          1   5        -0.0037649773
	          2  20         0.0032881320
	          1   1         0.0032013181

	Largest TIJAB Amplitudes:
	  3   2  10   1        -0.0308037371
	  4   3   8   2         0.0236253258
	  3   2  11   4        -0.0219460050
	  4   3  15  10        -0.0209042528
	  4   3  13  10        -0.0206618944
	  4   2  13   1        -0.0197290058
	  4   2  15   1        -0.0196745295
	  3   2  10   2        -0.0173927194
	  4   2  14   4         0.0154691818
	  4   2  14   2        -0.0154634274

	Largest Tijab Amplitudes:
	  2   1  11   9        -0.0103227606
	  2   1  16   1        -0.0077371147
	  2   1  16   0         0.0077090182
	  2   1  16   3        -0.0072993207
	  2   1  15   0        -0.0068600090
	  2   1  17   0        -0.0067733795
	  2   1  15   1        -0.0066037841
	  2   1  17   4         0.0063165633
	  2   1  15   4         0.0061108819
	  2   1  12   9        -0.0045929583

	Largest TIjAb Amplitudes:
	  4   2  15  17        -0.0339373939
	  4   2  13  15        -0.0325022871
	  3   1   2  11        -0.0318051313
	  4   2  13  17        -0.0297797882
	  4   2   2   2        -0.0291206477
	  4   2  14  16        -0.0279412314
	  3   2  10  17        -0.0258275152
	  2   1   4   0        -0.0257444551
	  4   2  15  15        -0.0257199817
	  3   2  10  15        -0.0255216161

	SCF energy       (chkpt)              =  -38.917378692252086
	Reference energy (file100)            =  -38.917378692252043

	Opposite-spin MP2 correlation energy  =    0.000000000000000
	Same-spin MP2 correlation energy      =    0.000000000000000
	MP2 correlation energy                =   -0.095353982824164
      * MP2 total energy                      =  -39.012732675076208

	Opposite-spin CCSD correlation energy =    0.000000000000000
	Same-spin CCSD correlation energy     =    0.000000000000000
	CCSD correlation energy               =   -0.115368880685088
      * CCSD total energy                     =  -39.032747572937133


*** tstop() called on QuickSilver.local at Mon Jan 23 14:55:57 2012
Module time:
	user time   =       0.38 seconds =       0.01 minutes
	system time =       0.37 seconds =       0.01 minutes
	total time  =          2 seconds =       0.03 minutes
Total time:
	user time   =       0.54 seconds =       0.01 minutes
	system time =       0.48 seconds =       0.01 minutes
	total time  =          3 seconds =       0.05 minutes

*** tstart() called on QuickSilver.local
*** at Mon Jan 23 14:55:57 2012


			**************************
			*                        *
			*         CCHBAR         *
			*                        *
			**************************


*** tstop() called on QuickSilver.local at Mon Jan 23 14:55:57 2012
Module time:
	user time   =       0.04 seconds =       0.00 minutes
	system time =       0.05 seconds =       0.00 minutes
	total time  =          0 seconds =       0.00 minutes
Total time:
	user time   =       0.59 seconds =       0.01 minutes
	system time =       0.53 seconds =       0.01 minutes
	total time  =          3 seconds =       0.05 minutes

*** tstart() called on QuickSilver.local
*** at Mon Jan 23 14:55:57 2012


			**************************
			*        CCLAMBDA        *
			**************************


	Nuclear Rep. energy (chkpt)   =    6.068298005568227
	Reference           (chkpt)   = 2
	SCF energy          (chkpt)   =  -38.917378692252086
	Reference energy    (CC_INFO) =  -38.917378692252043
	CCSD energy         (CC_INFO) =   -0.115368880685088
	Total CCSD energy   (CC_INFO) =  -39.032747572937133

	Input parameters:
	-----------------
	Maxiter       =      50
	Convergence   = 1.0e-07
	Restart       =     No
	Cache Level   =     2
	Model III     =     No
	DIIS          =     Yes
	AO Basis      =     No
	ABCD            =     NEW
	Local CC        =     No
	Paramaters for left-handed eigenvectors:
	    Irr   Root  Ground-State?    EOM energy        R0
	  1   0     0        Yes       0.0000000000   1.0000000000
	Labels for eigenvector 1:
	LIA 0 -1, Lia 0 -1, LIJAB 0 -1, Lijab 0 -1, LIjAb 0 -1, 2LIjAb - LIjbA 0 -1
	Symmetry of left-hand state: B1
	Symmetry of left-hand eigenvector: A1

	          Solving Lambda Equations
	          ------------------------
	Iter     PseudoEnergy or Norm         RMS  
	----     ---------------------     --------
	   0        -0.115336914050539    0.000e+00
	   1        -0.112948423480473    5.848e-03
	   2        -0.112434913245115    1.346e-03
	   3        -0.112383392440491    3.665e-04
	   4        -0.112383560851862    1.193e-04
	   5        -0.112381355841526    4.671e-05
	   6        -0.112380583447409    1.486e-05
	   7        -0.112380528458570    4.608e-06
	   8        -0.112380502898378    1.478e-06
	   9        -0.112380498211734    5.178e-07
	  10        -0.112380500559594    1.490e-07
	  11        -0.112380500794792    3.794e-08

	Largest LIA Amplitudes:
	          4  13        -0.0069776580
	          4  14         0.0060699250
	          1   0        -0.0058442507
	          1   2        -0.0057044290
	          3  11        -0.0049835561
	          1   1         0.0046316867
	          3  10        -0.0043864747
	          2   4        -0.0041541022
	          4  17         0.0039625140
	          2   1        -0.0034739306

	Largest Lia Amplitudes:
	          1   0         0.0188401638
	          1   2         0.0098401305
	          2  17         0.0090335638
	          2  15         0.0066160781
	          2  19         0.0055571344
	          1   6        -0.0051536229
	          1   4        -0.0048222938
	          1   1         0.0037768531
	          1   5        -0.0034786972
	          2  20         0.0028829317

	Largest LIJAB Amplitudes:
	  3   2  10   1        -0.0303772583
	  4   3   8   2         0.0228916995
	  3   2  11   4        -0.0214282061
	  4   3  15  10        -0.0203324260
	  4   3  13  10        -0.0201478534
	  4   2  13   1        -0.0192400944
	  4   2  15   1        -0.0191416994
	  3   2  10   2        -0.0171022969
	  3   1  10   3         0.0152156376
	  4   2  14   2        -0.0149693577

	Largest Lijab Amplitudes:
	  2   1  11   9        -0.0099410061
	  2   1  16   1        -0.0074492493
	  2   1  16   0         0.0074148302
	  2   1  16   3        -0.0070360034
	  2   1  15   0        -0.0066565845
	  2   1  17   0        -0.0066015098
	  2   1  15   1        -0.0063531852
	  2   1  17   4         0.0062162264
	  2   1  15   4         0.0059792147
	  2   1  12   9        -0.0044372564

	Largest LIjAb Amplitudes:
	  4   2  15  17        -0.0330691968
	  4   2  13  15        -0.0316339347
	  3   1   2  11        -0.0308403494
	  4   2  13  17        -0.0290559000
	  4   2   2   2        -0.0282363110
	  4   2  14  16        -0.0271268497
	  3   2  10  17        -0.0252304797
	  4   2  15  15        -0.0250645145
	  2   1   4   0        -0.0250373089
	  3   2  10  15        -0.0248813089

	Iterations converged.

	Overlap <L|e^T> =        0.94968189382

*** tstop() called on QuickSilver.local at Mon Jan 23 14:55:57 2012
Module time:
	user time   =       0.14 seconds =       0.00 minutes
	system time =       0.11 seconds =       0.00 minutes
	total time  =          0 seconds =       0.00 minutes
Total time:
	user time   =       0.73 seconds =       0.01 minutes
	system time =       0.64 seconds =       0.01 minutes
	total time  =          3 seconds =       0.05 minutes

*** tstart() called on QuickSilver.local
*** at Mon Jan 23 14:55:57 2012


			**************************
			*                        *
			*        CCDENSITY       *
			*                        *
			**************************


	Input parameters:
	-----------------
	Wave function    =   CCSD
	Reference wfn    =   UHF
	Dertype          = 1
	Tolerance        = 1.0e-14
	Cache Level      = 2
	AO Basis         = No
	OPDM Only        = No
	Relax OPDM       = Yes
	Compute Xi       = No
	Use Zeta         = No
	Xi connected     = Yes

	Nuclear Rep. energy (chkpt)   =    6.068298005568227
	SCF energy          (chkpt)   =  -38.917378692252086
	Reference energy    (file100) =  -38.917378692252043
	CCSD energy         (CC_INFO) =   -0.115368880685088
	Total CCSD energy   (CC_INFO) =  -39.032747572937133
	Number of States = 1

	Ground?  State     EOM Energy       R0
	  Yes     0 A1    0.0000000000   1.00000000

	Energies re-computed from CC density:
	-------------------------------------
	One-electron energy        =    0.141016040723898
	IJKL energy                =    0.027763845335572
	IJKA energy                =   -0.000353281372237
	IJAB energy                =   -0.224812595636327
	IBJA energy                =   -0.090070270098943
	CIAB energy                =   -0.001312771179906
	ABCD energy                =    0.032400150170766
	Total two-electron energy  =   -0.256384922781075
	CCSD    correlation energy =   -0.115368882057178
	Total CCSD    energy       =  -39.032747574309219

	Energies re-computed from Fock-adjusted CC density:
	---------------------------------------------------
	One-electron energy        =    0.087239214149688
	IJKL energy                =   -0.339382628092794
	IJKA energy                =    0.010456466056016
	IJAB energy                =   -0.224812595636327
	IBJA energy                =    0.320043282476552
	CIAB energy                =   -0.001312771179906
	ABCD energy                =    0.032400150170766
	Total two-electron energy  =   -0.202608096205692
	   CCSD correlation energy =   -0.115368882056004
	Total    CCSD energy       =  -39.032747574308047

	Energies re-computed from Mulliken density:
	-------------------------------------------
	One-electron energy        =    0.087239214149688
	IjKl energy                =   -0.187737727754084
	IJKL energy                =   -0.108978105857487
	ijkl energy                =   -0.042666794481222
	IjKa+iJkA energy           =    0.015715217797138
	IJKA energy                =   -0.021961378952120
	ijka energy                =    0.016702627210998
	IjAb energy                =   -0.171719704799502
	IJAB energy                =   -0.040971609593944
	ijab energy                =   -0.004838653098532
	IBJA energy                =    0.104375123841121
	ibja energy                =    0.047603863594681
	iBjA+IbJa energy           =    0.160781666896402
	cIaB+CiAb energy           =   -0.001473160514304
	CIAB energy                =    0.000216387724454
	ciab energy                =   -0.000055998390056
	AbCd energy                =    0.028352634651893
	ABCD energy                =    0.003735859233718
	abcd energy                =    0.000311656285155
	Total two-electron energy  =   -0.202608096205693
	CCSD    correlation energy =   -0.115368882056004
	Total CCSD    energy       =  -39.032747574308047

*** tstop() called on QuickSilver.local at Mon Jan 23 14:55:58 2012
Module time:
	user time   =       0.10 seconds =       0.00 minutes
	system time =       0.09 seconds =       0.00 minutes
	total time  =          1 seconds =       0.02 minutes
Total time:
	user time   =       0.83 seconds =       0.01 minutes
	system time =       0.73 seconds =       0.01 minutes
	total time  =          4 seconds =       0.07 minutes

*** tstart() called on QuickSilver.local
*** at Mon Jan 23 14:55:58 2012

 DERIV: Derivative code.
   by Justin Turney

  Cartesian Displacement SALCs
  By SALC:
  Number of SALCs: 3, nirreps: 1
  Project out translations: False
  Project out rotations: False
	irrep = 0, ncomponent = 1
		0: atom 0, direction z, coef 1.000000
	irrep = 0, ncomponent = 2
		0: atom 1, direction y, coef 0.707107
		1: atom 2, direction y, coef -0.707107
	irrep = 0, ncomponent = 2
		0: atom 1, direction z, coef 0.707107
		1: atom 2, direction z, coef 0.707107

  By Atomic Center:
  Number of atomic centers: 3
   Atomic Center 0:
	x component, size = 0
	y component, size = 0
	z component, size = 1
		0: salc 0, irrep 0, coef 1.000000
   Atomic Center 1:
	x component, size = 0
	y component, size = 1
		0: salc 1, irrep 0, coef 0.707107
	z component, size = 1
		0: salc 2, irrep 0, coef 0.707107
   Atomic Center 2:
	x component, size = 0
	y component, size = 1
		0: salc 1, irrep 0, coef -0.707107
	z component, size = 1
		0: salc 2, irrep 0, coef 0.707107

    Molecular point group: c2v

    Geometry (in Bohr), charge = 0, multiplicity = 3:

       Center              X                  Y                   Z       
    ------------   -----------------  -----------------  -----------------
           C          0.000000000000     0.000000000000    -0.173599104928
           H          0.000000000000    -1.692300907248     1.033507401008
           H         -0.000000000000     1.692300907248     1.033507401008

	Presorting MO-basis TPDMs.
	Sorting File: MO TPDM (AA|AA) nbuckets = 1
	Sorting File: MO TPDM (AA|aa) nbuckets = 1
	Sorting File: MO TPDM (aa|aa) nbuckets = 1
	Starting first half-transformation.
	Sorting half-transformed TPDMs.
	First half integral transformation complete.




  -Nuclear Repulsion Energy 1st Derivatives:
     Atom            X                  Y                   Z
    ------   -----------------  -----------------  -----------------
       1        0.000000000000     0.000000000000     1.612694758402
       2        0.000000000000     1.217751421440    -0.806347379201
       3        0.000000000000    -1.217751421440    -0.806347379201


  -One-electron contribution to gradient:
     Atom            X                  Y                   Z
    ------   -----------------  -----------------  -----------------
       1        0.000000000000     0.000000000000    -4.391503885873
       2        0.000000000000    -2.838481372325     2.195751942936
       3        0.000000000000     2.838481372325     2.195751942936


  -Lagrangian contribution to gradient:
     Atom            X                  Y                   Z
    ------   -----------------  -----------------  -----------------
       1        0.000000000000     0.000000000000     0.302978008265
       2        0.000000000000     0.165415372003    -0.151489004133
       3        0.000000000000    -0.165415372003    -0.151489004133


  -Two-electron contribution to gradient:
     Atom            X                  Y                   Z
    ------   -----------------  -----------------  -----------------
       1        0.000000000000     0.000000000000     2.439960412738
       2        0.000000000000     1.470705815474    -1.219980206369
       3        0.000000000000    -1.470705815474    -1.219980206369


  -Total gradient:
     Atom            X                  Y                   Z
    ------   -----------------  -----------------  -----------------
       1        0.000000000000     0.000000000000    -0.035870706468
       2        0.000000000000     0.015391236591     0.017935353234
       3        0.000000000000    -0.015391236591     0.017935353234


*** tstop() called on QuickSilver.local at Mon Jan 23 14:55:58 2012
Module time:
	user time   =       0.19 seconds =       0.00 minutes
	system time =       0.04 seconds =       0.00 minutes
	total time  =          0 seconds =       0.00 minutes
Total time:
	user time   =       1.02 seconds =       0.02 minutes
	system time =       0.77 seconds =       0.01 minutes
	total time  =          4 seconds =       0.07 minutes

			----------------------------------
			 OPTKING: for geometry optimizations  
			  - R.A. King,  Bethel University   
			------------------------------------

	Internal coordinates to be generated automatically.
	Detected frag with atoms:  1 2 3
	---Fragment 1 Bond Connectivity---
	 1 : 2 3
	 2 : 1
	 3 : 1

	---Fragment 1 Geometry and Gradient---
	 C           0.0000000000        0.0000000000       -0.1735991049
	 H           0.0000000000       -1.6923009072        1.0335074010
	 H          -0.0000000000        1.6923009072        1.0335074010
	             0.0000000000        0.0000000000       -0.0358707065
	             0.0000000000        0.0153912366        0.0179353532
	             0.0000000000       -0.0153912366        0.0179353532

	Previous optimization step data not found.  Starting new optimization.

	---Fragment 1 Intrafragment Coordinates---
	 * Coordinate *           * BOHR/RAD *       * ANG/DEG *
	 R(1,2)           =         2.078699	       1.100000
	 R(1,3)           =         2.078699	       1.100000
	 B(2,1,3)         =         1.902409	     109.000000

	Current energy   :       -39.0327475729

	Generating empirical Hessian (Fischer & Almlof '92) for each fragment.
	Following RFO solution 0.
	Projected energy change by RFO approximation:        -0.0041928274

	Back-transformation to cartesian coordinates...
	Successfully converged to displaced geometry.

	---Internal Coordinate Step in ANG or DEG, aJ/ANG or AJ/DEG ---
	 ----------------------------------------------------------------------
	 Coordinate             Previous        Force       Change         New 
	 ----------             --------       ------       ------       ------
	 R(1,2)          =      1.100000     0.017426     0.003382     1.103383
	 R(1,3)          =      1.100000     0.017426     0.003382     1.103383
	 B(2,1,3)        =    109.000000     0.003723     9.787550   118.787550
	 ----------------------------------------------------------------------

	Convergence Check Cycle    1: (using internal coordinates in au)
	                    Actual        Tolerance     Converged?
	----------------------------------------------------------
	MAX Force           4.9e-02        1.0e-06          no
	Energy Change      -3.9e+01        1.0e-07          no
	MAX Displacement    1.7e-01        1.0e-06          no
	----------------------------------------------------------
	Writing optimization data to binary file.
	Structure for next step:
	Cartesian Geometry (au)
	    C     0.0000000000   0.0000000000  -0.1526721165
	    H     0.0000000000  -1.7946098202   0.9089203682
	    H    -0.0000000000   1.7946098202   0.9089203682
			--------------------------
			 OPTKING Finished Execution 
			--------------------------

*** tstart() called on QuickSilver.local
*** at Mon Jan 23 14:55:58 2012


         ---------------------------------------------------------
                                   SCF
            by Justin Turney, Rob Parrish, and Andy Simmonett
                              UHF Reference
                        1 Threads,    250 MiB Core
         ---------------------------------------------------------

  ==> Geometry <==

    Molecular point group: c2v

    Geometry (in Angstrom), charge = 0, multiplicity = 3:

       Center              X                  Y                   Z       
    ------------   -----------------  -----------------  -----------------
           C         -0.000000000000     0.000000000000    -0.080790604459
           H          0.000000000000    -0.949666615186     0.480979943273
           H         -0.000000000000     0.949666615186     0.480979943273

    Number of unique atoms: 2

    Atoms equivalency:
       unique atom 0: 0 
       unique atom 1: 1 2 

  Running in c2v symmetry.

  Nuclear repulsion =    6.033757565166699

  Charge       = 0
  Multiplicity = 3
  Electrons    = 8
  Nalpha       = 5
  Nbeta        = 3

  ==> Algorithm <==

  SCF Algorithm Type is PK.
  DIIS enabled.
  MOM disabled.
  Fractional occupation disabled.
  Guess Type is CORE.
  Energy threshold   = 1.00e-10
  Density threshold  = 1.00e-10
  Integral threshold = 0.00e+00

  ==> Primary Basis: CC-PVDZ <==

  Basis Set
    Number of shells: 12
    Number of basis function: 24
    Number of Cartesian functions: 25
    Spherical Harmonics?: true
    Max angular momentum: 2

  ==> Pre-Iterations <==

  Minimum eigenvalue in the overlap matrix is 3.1465932811E-02.
  Using Symmetric Orthogonalization.
  SCF Guess: Core (One-Electron) Hamiltonian.

  Initial UHF energy:   -28.45284714283769

   -------------------------------------------------------
    Irrep   Nso     Nmo     Nalpha   Nbeta   Ndocc  Nsocc
   -------------------------------------------------------
     A1        11      11       3       2       2       1
     A2         2       2       0       0       0       0
     B1         4       4       1       0       0       1
     B2         7       7       1       1       1       0
   -------------------------------------------------------
    Total      24      24       5       3       3       2
   -------------------------------------------------------

  ==> Integral Setup <==

 MINTS: Wrapper to libmints.
   by Justin Turney

   Calculation information:
      Number of atoms:                   3
      Number of AO shells:              12
      Number of SO shells:               9
      Number of primitives:             32
      Number of atomic orbitals:        25
      Number of basis functions:        24

      Number of irreps:                  4
      Number of functions per irrep: [  11    2    4    7 ]

      Overlap, kinetic, potential, dipole, and quadrupole integrals
        stored in file 35.

      Computing two-electron integrals...done
      Computed 11412 non-zero two-electron integrals.
        Stored in file 33.

  ==> Iterations <==

                        Total Energy        Delta E     Density RMS

   @UHF iter   1:   -35.15627328885341   -6.70343e+00   0.00000e+00 
   @UHF iter   2:   -38.10101359008260   -2.94474e+00   2.46999e-01 DIIS
   @UHF iter   3:   -38.90714872612087   -8.06135e-01   1.43869e-01 DIIS
   @UHF iter   4:   -38.92178691619026   -1.46382e-02   1.43891e-02 DIIS
   @UHF iter   5:   -38.92340249481531   -1.61558e-03   4.38746e-03 DIIS
   @UHF iter   6:   -38.92361012288690   -2.07628e-04   1.24119e-03 DIIS
   @UHF iter   7:   -38.92362534700811   -1.52241e-05   2.31023e-04 DIIS
   @UHF iter   8:   -38.92362619193887   -8.44931e-07   2.49082e-05 DIIS
   @UHF iter   9:   -38.92362628470792   -9.27691e-08   9.28709e-06 DIIS
   @UHF iter  10:   -38.92362630010656   -1.53986e-08   5.93256e-06 DIIS
   @UHF iter  11:   -38.92362630080611   -6.99544e-10   1.23063e-06 DIIS
   @UHF iter  12:   -38.92362630082454   -1.84315e-11   2.66843e-07 DIIS
   @UHF iter  13:   -38.92362630082532   -7.81597e-13   5.80664e-08 DIIS
   @UHF iter  14:   -38.92362630082536   -4.26326e-14   1.16919e-08 DIIS
   @UHF iter  15:   -38.92362630082538   -1.42109e-14   1.19245e-09 DIIS
   @UHF iter  16:   -38.92362630082538    0.00000e+00   2.63024e-10 DIIS

  ==> Post-Iterations <==

	Orbital Energies (a.u.)
	-----------------------

	Alpha Occupied:                                                       

	   1A1   -11.277315     2A1    -0.943974     1B2    -0.588740  
	   3A1    -0.474102     1B1    -0.411331  

	Alpha Virtual:                                                        

	   4A1     0.198372     2B2     0.255042     3B2     0.614116  
	   5A1     0.625558     2B1     0.652218     6A1     0.699455  
	   4B2     0.864612     7A1     0.998743     1A2     1.169217  
	   8A1     1.232080     3B1     1.263650     5B2     1.647758  
	   9A1     1.715525     4B1     1.942679     6B2     1.971022  
	   2A2     2.082931    10A1     2.294108     7B2     2.722880  
	  11A1     2.731826  

	Beta Occupied:                                                        

	   1A1   -11.227332     2A1    -0.774785     1B2    -0.551954  

	Beta Virtual:                                                         

	   3A1     0.116436     1B1     0.159101     4A1     0.221434  
	   2B2     0.281267     3B2     0.650196     5A1     0.695795  
	   2B1     0.823174     6A1     0.824410     4B2     0.913445  
	   7A1     1.055635     1A2     1.242773     8A1     1.353404  
	   3B1     1.405998     5B2     1.656666     9A1     1.796510  
	   4B1     1.980604     6B2     2.028436     2A2     2.132961  
	  10A1     2.322930     7B2     2.745946    11A1     2.756345  

	Final Occupation by Irrep:
	         A1    A2    B1    B2 
	DOCC [     2,    0,    0,    1 ]
	SOCC [     1,    0,    1,    0 ]

  Energy converged.

  @UHF Final Energy:   -38.92362630082538

  ==> Properties <==
  Nuclear Dipole Moment: (a.u.)
     X:     0.0000      Y:     0.0000      Z:     0.9018

  Electronic Dipole Moment: (a.u.)
     X:     0.0000      Y:     0.0000      Z:    -0.6600

  Dipole Moment: (a.u.)
     X:     0.0000      Y:     0.0000      Z:     0.2418     Total:     0.2418

  Dipole Moment: (Debye)
     X:     0.0000      Y:     0.0000      Z:     0.6146     Total:     0.6146


  @Spin Contamination Metric:  0.01298
  @S^2 Expected:               2.00000
  @S^2 Observed:               2.01298

  Saving occupied orbitals to File 180.

*** tstop() called on QuickSilver.local at Mon Jan 23 14:55:58 2012
Module time:
	user time   =       0.09 seconds =       0.00 minutes
	system time =       0.01 seconds =       0.00 minutes
	total time  =          0 seconds =       0.00 minutes
Total time:
	user time   =       1.12 seconds =       0.02 minutes
	system time =       0.78 seconds =       0.01 minutes
	total time  =          4 seconds =       0.07 minutes

*** tstart() called on QuickSilver.local
*** at Mon Jan 23 14:55:58 2012


	**************************************************
	* TRANSQT2: Program to transform integrals from  *
	*           the SO basis to the MO basis.        *
	*                                                *
	*            Daniel, David, & Justin             *
	**************************************************


	Input parameters:
	-----------------
	Wave function   =	CCSD
	Backtransform   =	No
	Print Level     =	1
	Print TEIs      =	No
	Reference wfn   =	UHF
	Derivative      =	First
	Delete TEI File =	Yes
	Memory (Mbytes) =	250.0
	Cache Level     =	2
	Cache Type      =	LRU
	Chkpt Parameters:
	--------------------
	Number of irreps     = 4
	Number of SOs        = 24
	Number of MOs        = 24
	Number of active MOs = 24

	Label	# SOs	# FZDC	# DOCC	# SOCC	# VIRT	# FZVR
	-----	-----	------	------	------	------	------
	 A1	   11	    0	    2	    1	    8	    0
	 A2	   2	    0	    0	    0	    2	    0
	 B1	   4	    0	    0	    1	    3	    0
	 B2	   7	    0	    1	    0	    6	    0

	Nuclear Rep. energy (chkpt) =      6.03375756516670
	SCF energy          (chkpt) =    -38.92362630082538

	Presorting SO-basis two-electron integrals.
	Sorting File: SO Ints (pq,rs) nbuckets = 1
	Frozen-core energy =    0.000000000000000
	Starting AA/AB first half-transformation.
	Sorting AA/AB half-transformed integrals.
	Starting AA second half-transformation.
	Starting AB second half-transformation.
	Starting BB first half-transformation.
	Sorting BB half-transformed integrals.
	Starting BB second half-transformation.
	Two-electron integral transformation complete.

*** tstop() called on QuickSilver.local at Mon Jan 23 14:55:58 2012
Module time:
	user time   =       0.02 seconds =       0.00 minutes
	system time =       0.02 seconds =       0.00 minutes
	total time  =          0 seconds =       0.00 minutes
Total time:
	user time   =       1.14 seconds =       0.02 minutes
	system time =       0.80 seconds =       0.01 minutes
	total time  =          4 seconds =       0.07 minutes

*** tstart() called on QuickSilver.local
*** at Mon Jan 23 14:55:58 2012


			**************************
			*                        *
			*         CCSORT         *
			*                        *
			**************************


	Input parameters:
	-----------------
	Wave function   =	CCSD
	Reference wfn   =	UHF
	Derivative      =	First
	Memory (Mbytes) =	250.0
	AO Basis        =	NONE
	Make (ab|cd)    =	True
	Make unpacked (ab|cd) =	True
	Cache Level     =	2
	Cache Type      =	LRU
	Local CC        =     No


	Chkpt Parameters:
	--------------------
	Number of irreps     = 4
	Number of MOs        = 24
	Number of active MOs = 24

	Label	# MOs	# FZDC	# DOCC	# SOCC	# VIRT	# FZVR
	-----	-----	------	------	------	------	------
	 A1	   11	    0	    2	    1	    8	    0
	 A2	   2	    0	    0	    0	    2	    0
	 B1	   4	    0	    0	    1	    3	    0
	 B2	   7	    0	    1	    0	    6	    0

	Nuclear Rep. energy (chkpt) =      6.03375756516670
	SCF energy          (chkpt) =    -38.92362630082538

	Size of irrep 0 of <AB|CD> integrals:      0.002 (MW) /      0.018 (MB)
	Size of irrep 1 of <AB|CD> integrals:      0.001 (MW) /      0.009 (MB)
	Size of irrep 2 of <AB|CD> integrals:      0.001 (MW) /      0.010 (MB)
	Size of irrep 3 of <AB|CD> integrals:      0.003 (MW) /      0.023 (MB)
	Total:                                     0.008 (MW) /      0.061 (MB)

	Size of irrep 0 of <ab|cd> integrals:      0.003 (MW) /      0.027 (MB)
	Size of irrep 1 of <ab|cd> integrals:      0.002 (MW) /      0.014 (MB)
	Size of irrep 2 of <ab|cd> integrals:      0.002 (MW) /      0.018 (MB)
	Size of irrep 3 of <ab|cd> integrals:      0.004 (MW) /      0.031 (MB)
	Total:                                     0.011 (MW) /      0.090 (MB)

	Size of irrep 0 of <Ab|Cd> integrals:      0.015 (MW) /      0.123 (MB)
	Size of irrep 1 of <Ab|Cd> integrals:      0.006 (MW) /      0.046 (MB)
	Size of irrep 2 of <Ab|Cd> integrals:      0.007 (MW) /      0.055 (MB)
	Size of irrep 3 of <Ab|Cd> integrals:      0.013 (MW) /      0.108 (MB)
	Total:                                     0.041 (MW) /      0.332 (MB)

	Size of irrep 0 of <IA|BC> integrals:      0.004 (MW) /      0.030 (MB)
	Size of irrep 1 of <IA|BC> integrals:      0.001 (MW) /      0.008 (MB)
	Size of irrep 2 of <IA|BC> integrals:      0.001 (MW) /      0.011 (MB)
	Size of irrep 3 of <IA|BC> integrals:      0.003 (MW) /      0.024 (MB)
	Total:                                     0.009 (MW) /      0.073 (MB)

	Size of irrep 0 of <ia|bc> integrals:      0.003 (MW) /      0.026 (MB)
	Size of irrep 1 of <ia|bc> integrals:      0.001 (MW) /      0.005 (MB)
	Size of irrep 2 of <ia|bc> integrals:      0.001 (MW) /      0.008 (MB)
	Size of irrep 3 of <ia|bc> integrals:      0.003 (MW) /      0.021 (MB)
	Total:                                     0.008 (MW) /      0.060 (MB)

	Size of irrep 0 of <Ia|Bc> integrals:      0.005 (MW) /      0.037 (MB)
	Size of irrep 1 of <Ia|Bc> integrals:      0.001 (MW) /      0.010 (MB)
	Size of irrep 2 of <Ia|Bc> integrals:      0.002 (MW) /      0.015 (MB)
	Size of irrep 3 of <Ia|Bc> integrals:      0.003 (MW) /      0.027 (MB)
	Total:                                     0.011 (MW) /      0.089 (MB)

	Size of irrep 0 of <iA|bC> integrals:      0.003 (MW) /      0.022 (MB)
	Size of irrep 1 of <iA|bC> integrals:      0.001 (MW) /      0.004 (MB)
	Size of irrep 2 of <iA|bC> integrals:      0.001 (MW) /      0.005 (MB)
	Size of irrep 3 of <iA|bC> integrals:      0.002 (MW) /      0.019 (MB)
	Total:                                     0.006 (MW) /      0.050 (MB)

	Size of irrep 0 of tIjAb amplitudes:       0.001 (MW) /      0.007 (MB)
	Size of irrep 1 of tIjAb amplitudes:       0.000 (MW) /      0.001 (MB)
	Size of irrep 2 of tIjAb amplitudes:       0.000 (MW) /      0.001 (MB)
	Size of irrep 3 of tIjAb amplitudes:       0.001 (MW) /      0.005 (MB)
	Total:                                     0.002 (MW) /      0.014 (MB)


	Sorting File: A <IJ|KL> nbuckets = 1
	Sorting File: B <AB|CD> nbuckets = 1
	Sorting File: C <IA|JB> nbuckets = 1
	Sorting File: D <IJ|AB> nbuckets = 1
	Sorting File: E <AI|JK> nbuckets = 1
	Sorting File: F <IA|BC> nbuckets = 1
	Sorting File: F <AI|BC> nbuckets = 1
	Sorting File: A <ij|kl> nbuckets = 1
	Sorting File: B <ab|cd> nbuckets = 1
	Sorting File: C <ia|jb> nbuckets = 1
	Sorting File: D <ij|ab> nbuckets = 1
	Sorting File: E <ai|jk> nbuckets = 1
	Sorting File: F <ia|bc> nbuckets = 1
	Sorting File: F <ai|bc> nbuckets = 1
	Sorting File: A <Ij|Kl> nbuckets = 1
	Sorting File: B <Ab|Cd> nbuckets = 1
	Sorting File: C <Ia|Jb> nbuckets = 1
	Sorting File: C <Ai|Bj> nbuckets = 1
	Sorting File: D <Ij|Ab> nbuckets = 1
	Sorting File: E <Ai|Jk> nbuckets = 1
	Sorting File: E <Ij|Ka> nbuckets = 1
	Sorting File: F <Ia|Bc> nbuckets = 1
	Sorting File: F <aI|bC> nbuckets = 1
	Sorting File: F <Ab|Ci> nbuckets = 1
	Sorting File: F <Ai|Bc> nbuckets = 1
	One-electron energy          =    -63.66523465985124
	Two-electron (AA) energy     =      5.36502852117753
	Two-electron (BB) energy     =      1.63508836130039
	Two-electron (AB) energy     =     11.70773391138123
	Two-electron energy          =     18.70785079385915
	Frozen-core energy (transqt) =      0.00000000000000
	Reference energy             =    -38.92362630082539

*** tstop() called on QuickSilver.local at Mon Jan 23 14:55:59 2012
Module time:
	user time   =       0.05 seconds =       0.00 minutes
	system time =       0.07 seconds =       0.00 minutes
	total time  =          1 seconds =       0.02 minutes
Total time:
	user time   =       1.19 seconds =       0.02 minutes
	system time =       0.87 seconds =       0.01 minutes
	total time  =          5 seconds =       0.08 minutes

*** tstart() called on QuickSilver.local
*** at Mon Jan 23 14:55:59 2012

			**************************
			*                        *
			*        CCENERGY        *
			*                        *
			**************************

	Nuclear Rep. energy (chkpt)   =    6.033757565166699
	SCF energy          (chkpt)   =  -38.923626300825376
	Reference energy    (file100) =  -38.923626300825390

	Input parameters:
	-----------------
	Wave function   =     CCSD
	Reference wfn   =     UHF
	Memory (Mbytes) =     250.0
	Maxiter         =     50
	Convergence     =     1.0e-07
	Restart         =     No
	DIIS            =     Yes
	AO Basis        =     NONE
	ABCD            =     NEW
	Cache Level     =     2
	Cache Type      =     LRU
	Print Level     =     1
	Num. of threads =     1
	# Amps to Print =     10
	Print MP2 Amps? =     No
	Analyze T2 Amps =     No
	Print Pair Ener =     No
	Local CC        =     No
	SCS-MP2         =     False
	SCSN-MP2        =     False
	SCS-CCSD        =     False

	            Solving CC Amplitude Equations
	            ------------------------------
  Iter             Energy              RMS        T1Diag      D1Diag    New D1Diag
  ----     ---------------------    ---------   ----------  ----------  ----------
     0        -0.095296592865905    7.396e-08    0.000000    0.000000    0.000000
     1        -0.110286406670451    3.742e-02    0.004964    0.000000    0.000000
     2        -0.114937683915802    1.447e-02    0.008727    0.000000    0.000000
     3        -0.115366426325880    5.255e-03    0.010745    0.000000    0.000000
     4        -0.115406999846846    1.536e-03    0.011210    0.000000    0.000000
     5        -0.115405163435119    4.091e-04    0.011214    0.000000    0.000000
     6        -0.115409714342657    1.517e-04    0.011192    0.000000    0.000000
     7        -0.115410428062724    5.338e-05    0.011179    0.000000    0.000000
     8        -0.115410126310751    1.330e-05    0.011176    0.000000    0.000000
     9        -0.115410324761203    3.533e-06    0.011175    0.000000    0.000000
    10        -0.115410329515227    1.144e-06    0.011175    0.000000    0.000000
    11        -0.115410312570340    2.725e-07    0.011175    0.000000    0.000000
    12        -0.115410314072862    6.427e-08    0.011175    0.000000    0.000000

	Iterations converged.


	Largest TIA Amplitudes:
	          1   0        -0.0072411529
	          1   1         0.0063276219
	          4  13        -0.0049253397
	          1   2        -0.0046569327
	          3  10        -0.0041864965
	          3  11        -0.0039089126
	          4  14         0.0037202568
	          4  17         0.0036118781
	          2   1        -0.0032794133
	          2   4        -0.0032548908

	Largest Tia Amplitudes:
	          1   0         0.0189415038
	          1   2         0.0113460706
	          2  17         0.0088095771
	          1   4        -0.0057728496
	          1   6        -0.0057189921
	          2  19         0.0054118915
	          2  15         0.0050201195
	          1   1         0.0049051640
	          2  20         0.0034822947
	          1   5        -0.0031566220

	Largest TIJAB Amplitudes:
	  3   2  10   1        -0.0262496665
	  3   2  10   2        -0.0247311113
	  3   2  11   4        -0.0233981465
	  4   3   8   2         0.0209695016
	  4   3  15  10        -0.0208031404
	  4   3  13  10        -0.0207426740
	  4   2  13   1        -0.0204253825
	  4   2  15   1        -0.0197973216
	  4   2  14   2        -0.0174813889
	  3   1  10   3         0.0152836808

	Largest Tijab Amplitudes:
	  2   1  11   9        -0.0102582769
	  2   1  16   0         0.0073615958
	  2   1  16   1        -0.0072753988
	  2   1  15   1        -0.0067540151
	  2   1  17   0        -0.0066487786
	  2   1  15   0        -0.0063720638
	  2   1  17   4         0.0062728253
	  2   1  15   4         0.0061757152
	  2   1  16   3        -0.0059157155
	  2   1  12   9        -0.0045010433

	Largest TIjAb Amplitudes:
	  4   2  15  17        -0.0341113414
	  4   2   2   2        -0.0310550918
	  4   2  13  15        -0.0299601562
	  4   2  13  17        -0.0279315115
	  3   1   2  11        -0.0270694687
	  2   1   4   0        -0.0263585057
	  3   1   0  11        -0.0259923050
	  4   2  14  16        -0.0258812851
	  3   2  10  17        -0.0257139846
	  2   1  11  11         0.0256216460

	SCF energy       (chkpt)              =  -38.923626300825376
	Reference energy (file100)            =  -38.923626300825390

	Opposite-spin MP2 correlation energy  =    0.000000000000000
	Same-spin MP2 correlation energy      =    0.000000000000000
	MP2 correlation energy                =   -0.095296592865905
      * MP2 total energy                      =  -39.018922893691297

	Opposite-spin CCSD correlation energy =    0.000000000000000
	Same-spin CCSD correlation energy     =    0.000000000000000
	CCSD correlation energy               =   -0.115410314072862
      * CCSD total energy                     =  -39.039036614898251


*** tstop() called on QuickSilver.local at Mon Jan 23 14:56:02 2012
Module time:
	user time   =       0.44 seconds =       0.01 minutes
	system time =       0.55 seconds =       0.01 minutes
	total time  =          3 seconds =       0.05 minutes
Total time:
	user time   =       1.64 seconds =       0.03 minutes
	system time =       1.42 seconds =       0.02 minutes
	total time  =          8 seconds =       0.13 minutes

*** tstart() called on QuickSilver.local
*** at Mon Jan 23 14:56:02 2012


			**************************
			*                        *
			*         CCHBAR         *
			*                        *
			**************************


*** tstop() called on QuickSilver.local at Mon Jan 23 14:56:02 2012
Module time:
	user time   =       0.06 seconds =       0.00 minutes
	system time =       0.09 seconds =       0.00 minutes
	total time  =          0 seconds =       0.00 minutes
Total time:
	user time   =       1.70 seconds =       0.03 minutes
	system time =       1.51 seconds =       0.03 minutes
	total time  =          8 seconds =       0.13 minutes

*** tstart() called on QuickSilver.local
*** at Mon Jan 23 14:56:02 2012


			**************************
			*        CCLAMBDA        *
			**************************


	Nuclear Rep. energy (chkpt)   =    6.033757565166699
	Reference           (chkpt)   = 2
	SCF energy          (chkpt)   =  -38.923626300825376
	Reference energy    (CC_INFO) =  -38.923626300825390
	CCSD energy         (CC_INFO) =   -0.115410314072862
	Total CCSD energy   (CC_INFO) =  -39.039036614898251

	Input parameters:
	-----------------
	Maxiter       =      50
	Convergence   = 1.0e-07
	Restart       =     No
	Cache Level   =     2
	Model III     =     No
	DIIS          =     Yes
	AO Basis      =     No
	ABCD            =     NEW
	Local CC        =     No
	Paramaters for left-handed eigenvectors:
	    Irr   Root  Ground-State?    EOM energy        R0
	  1   0     0        Yes       0.0000000000   1.0000000000
	Labels for eigenvector 1:
	LIA 0 -1, Lia 0 -1, LIJAB 0 -1, Lijab 0 -1, LIjAb 0 -1, 2LIjAb - LIjbA 0 -1
	Symmetry of left-hand state: B1
	Symmetry of left-hand eigenvector: A1

	          Solving Lambda Equations
	          ------------------------
	Iter     PseudoEnergy or Norm         RMS  
	----     ---------------------     --------
	   0        -0.115378628509473    3.794e-08
	   1        -0.112991273386266    5.652e-03
	   2        -0.112476546804255    1.307e-03
	   3        -0.112425330230572    3.560e-04
	   4        -0.112424506598855    1.204e-04
	   5        -0.112422303552990    4.708e-05
	   6        -0.112421603244830    1.420e-05
	   7        -0.112421582148941    4.399e-06
	   8        -0.112421570852724    1.424e-06
	   9        -0.112421568408463    4.831e-07
	  10        -0.112421569815658    1.364e-07
	  11        -0.112421569879644    3.420e-08

	Largest LIA Amplitudes:
	          1   0        -0.0069422512
	          1   1         0.0064664836
	          4  13        -0.0059947213
	          4  14         0.0053636584
	          1   2        -0.0049233612
	          3  11        -0.0045317973
	          3  10        -0.0040651554
	          2   4        -0.0039204300
	          4  15        -0.0036155053
	          2   5        -0.0033851438

	Largest Lia Amplitudes:
	          1   0         0.0177663762
	          1   2         0.0102775284
	          2  17         0.0079623815
	          1   4        -0.0056282185
	          1   1         0.0053367145
	          1   6        -0.0053002354
	          2  15         0.0050734692
	          2  19         0.0049512808
	          2  20         0.0030689707
	          1   5        -0.0029311260

	Largest LIJAB Amplitudes:
	  3   2  10   1        -0.0258794518
	  3   2  10   2        -0.0243258205
	  3   2  11   4        -0.0228301060
	  4   3   8   2         0.0202997039
	  4   3  15  10        -0.0202548889
	  4   3  13  10        -0.0202291104
	  4   2  13   1        -0.0198833152
	  4   2  15   1        -0.0192469422
	  4   2  14   2        -0.0169240260
	  3   1  10   3         0.0151690620

	Largest Lijab Amplitudes:
	  2   1  11   9        -0.0098794832
	  2   1  16   0         0.0070773120
	  2   1  16   1        -0.0070099800
	  2   1  15   1        -0.0065157232
	  2   1  17   0        -0.0064764494
	  2   1  15   0        -0.0061884148
	  2   1  17   4         0.0061805354
	  2   1  15   4         0.0060533607
	  2   1  16   3        -0.0057064263
	  2   1  12   9        -0.0043497940

	Largest LIjAb Amplitudes:
	  4   2  15  17        -0.0332656117
	  4   2   2   2        -0.0300951674
	  4   2  13  15        -0.0291796390
	  4   2  13  17        -0.0272687595
	  3   1   2  11        -0.0262272205
	  2   1   4   0        -0.0256168726
	  3   1   0  11        -0.0252252317
	  4   2  14  16        -0.0251475504
	  3   2  10  17        -0.0251175657
	  2   1  11  11         0.0248397250

	Iterations converged.

	Overlap <L|e^T> =        0.94971734443

*** tstop() called on QuickSilver.local at Mon Jan 23 14:56:03 2012
Module time:
	user time   =       0.16 seconds =       0.00 minutes
	system time =       0.26 seconds =       0.00 minutes
	total time  =          1 seconds =       0.02 minutes
Total time:
	user time   =       1.86 seconds =       0.03 minutes
	system time =       1.77 seconds =       0.03 minutes
	total time  =          9 seconds =       0.15 minutes

*** tstart() called on QuickSilver.local
*** at Mon Jan 23 14:56:03 2012


			**************************
			*                        *
			*        CCDENSITY       *
			*                        *
			**************************


	Input parameters:
	-----------------
	Wave function    =   CCSD
	Reference wfn    =   UHF
	Dertype          = 1
	Tolerance        = 1.0e-14
	Cache Level      = 2
	AO Basis         = No
	OPDM Only        = No
	Relax OPDM       = Yes
	Compute Xi       = No
	Use Zeta         = No
	Xi connected     = Yes

	Nuclear Rep. energy (chkpt)   =    6.033757565166699
	SCF energy          (chkpt)   =  -38.923626300825376
	Reference energy    (file100) =  -38.923626300825390
	CCSD energy         (CC_INFO) =   -0.115410314072862
	Total CCSD energy   (CC_INFO) =  -39.039036614898251
	Number of States = 1

	Ground?  State     EOM Energy       R0
	  Yes     0 A1    0.0000000000   1.00000000

	Energies re-computed from CC density:
	-------------------------------------
	One-electron energy        =    0.141155321107883
	IJKL energy                =    0.027734148977160
	IJKA energy                =   -0.000377694216525
	IJAB energy                =   -0.224892829329978
	IBJA energy                =   -0.090149236480151
	CIAB energy                =   -0.001271812577421
	ABCD energy                =    0.032391787632063
	Total two-electron energy  =   -0.256565635994853
	CCSD    correlation energy =   -0.115410314886969
	Total CCSD    energy       =  -39.039036615712362

	Energies re-computed from Fock-adjusted CC density:
	---------------------------------------------------
	One-electron energy        =    0.087389341330178
	IJKL energy                =   -0.338672688605838
	IJKA energy                =    0.010438102746367
	IJAB energy                =   -0.224892829329978
	IBJA energy                =    0.319207783918937
	CIAB energy                =   -0.001271812577421
	ABCD energy                =    0.032391787632063
	Total two-electron energy  =   -0.202799656215870
	   CCSD correlation energy =   -0.115410314885691
	Total    CCSD energy       =  -39.039036615711083

	Energies re-computed from Mulliken density:
	-------------------------------------------
	One-electron energy        =    0.087389341330178
	IjKl energy                =   -0.187298834987663
	IJKL energy                =   -0.109120582967267
	ijkl energy                =   -0.042253270650907
	IjKa+iJkA energy           =    0.015261243810459
	IJKA energy                =   -0.021605034227612
	ijka energy                =    0.016781893163520
	IjAb energy                =   -0.171846353291321
	IJAB energy                =   -0.041183696752824
	ijab energy                =   -0.004662863420301
	IBJA energy                =    0.104323216901670
	ibja energy                =    0.047376885974652
	iBjA+IbJa energy           =    0.160307765177083
	cIaB+CiAb energy           =   -0.001417869971552
	CIAB energy                =    0.000208778315188
	ciab energy                =   -0.000062720921056
	AbCd energy                =    0.028330840985033
	ABCD energy                =    0.003767423634859
	abcd energy                =    0.000293523012171
	Total two-electron energy  =   -0.202799656215870
	CCSD    correlation energy =   -0.115410314885691
	Total CCSD    energy       =  -39.039036615711083

*** tstop() called on QuickSilver.local at Mon Jan 23 14:56:04 2012
Module time:
	user time   =       0.10 seconds =       0.00 minutes
	system time =       0.14 seconds =       0.00 minutes
	total time  =          1 seconds =       0.02 minutes
Total time:
	user time   =       1.96 seconds =       0.03 minutes
	system time =       1.91 seconds =       0.03 minutes
	total time  =         10 seconds =       0.17 minutes

*** tstart() called on QuickSilver.local
*** at Mon Jan 23 14:56:04 2012

 DERIV: Derivative code.
   by Justin Turney

  Cartesian Displacement SALCs
  By SALC:
  Number of SALCs: 3, nirreps: 1
  Project out translations: False
  Project out rotations: False
	irrep = 0, ncomponent = 1
		0: atom 0, direction z, coef 1.000000
	irrep = 0, ncomponent = 2
		0: atom 1, direction y, coef 0.707107
		1: atom 2, direction y, coef -0.707107
	irrep = 0, ncomponent = 2
		0: atom 1, direction z, coef 0.707107
		1: atom 2, direction z, coef 0.707107

  By Atomic Center:
  Number of atomic centers: 3
   Atomic Center 0:
	x component, size = 0
	y component, size = 0
	z component, size = 1
		0: salc 0, irrep 0, coef 1.000000
   Atomic Center 1:
	x component, size = 0
	y component, size = 1
		0: salc 1, irrep 0, coef 0.707107
	z component, size = 1
		0: salc 2, irrep 0, coef 0.707107
   Atomic Center 2:
	x component, size = 0
	y component, size = 1
		0: salc 1, irrep 0, coef -0.707107
	z component, size = 1
		0: salc 2, irrep 0, coef 0.707107

    Molecular point group: c2v

    Geometry (in Bohr), charge = 0, multiplicity = 3:

       Center              X                  Y                   Z       
    ------------   -----------------  -----------------  -----------------
           C         -0.000000000000     0.000000000000    -0.152672116538
           H          0.000000000000    -1.794609820247     0.908920368197
           H         -0.000000000000     1.794609820247     0.908920368197

	Presorting MO-basis TPDMs.
	Sorting File: MO TPDM (AA|AA) nbuckets = 1
	Sorting File: MO TPDM (AA|aa) nbuckets = 1
	Sorting File: MO TPDM (aa|aa) nbuckets = 1
	Starting first half-transformation.
	Sorting half-transformed TPDMs.
	First half integral transformation complete.




  -Nuclear Repulsion Energy 1st Derivatives:
     Atom            X                  Y                   Z
    ------   -----------------  -----------------  -----------------
       1        0.000000000000     0.000000000000     1.405284513294
       2       -0.000000000000     1.265433309151    -0.702642256647
       3        0.000000000000    -1.265433309151    -0.702642256647


  -One-electron contribution to gradient:
     Atom            X                  Y                   Z
    ------   -----------------  -----------------  -----------------
       1        0.000000000000     0.000000000000    -3.732717055135
       2        0.000000000000    -3.073797630801     1.866358527568
       3        0.000000000000     3.073797630801     1.866358527568


  -Lagrangian contribution to gradient:
     Atom            X                  Y                   Z
    ------   -----------------  -----------------  -----------------
       1        0.000000000000     0.000000000000     0.255234829780
       2        0.000000000000     0.184250292829    -0.127617414890
       3        0.000000000000    -0.184250292829    -0.127617414890


  -Two-electron contribution to gradient:
     Atom            X                  Y                   Z
    ------   -----------------  -----------------  -----------------
       1        0.000000000000     0.000000000000     2.048045853577
       2        0.000000000000     1.627595178196    -1.024022926789
       3        0.000000000000    -1.627595178196    -1.024022926789


  -Total gradient:
     Atom            X                  Y                   Z
    ------   -----------------  -----------------  -----------------
       1        0.000000000000     0.000000000000    -0.024151858484
       2       -0.000000000000     0.003481149375     0.012075929242
       3        0.000000000000    -0.003481149375     0.012075929242


*** tstop() called on QuickSilver.local at Mon Jan 23 14:56:04 2012
Module time:
	user time   =       0.20 seconds =       0.00 minutes
	system time =       0.03 seconds =       0.00 minutes
	total time  =          0 seconds =       0.00 minutes
Total time:
	user time   =       2.16 seconds =       0.04 minutes
	system time =       1.94 seconds =       0.03 minutes
	total time  =         10 seconds =       0.17 minutes

			----------------------------------
			 OPTKING: for geometry optimizations  
			  - R.A. King,  Bethel University   
			------------------------------------

	Previous internal coordinate definitions found.
	---Fragment 1 Geometry and Gradient---
	 C          -0.0000000000        0.0000000000       -0.1526721165
	 H           0.0000000000       -1.7946098202        0.9089203682
	 H          -0.0000000000        1.7946098202        0.9089203682
	             0.0000000000        0.0000000000       -0.0241518585
	            -0.0000000000        0.0034811494        0.0120759292
	             0.0000000000       -0.0034811494        0.0120759292

	---Fragment 1 Intrafragment Coordinates---
	 * Coordinate *           * BOHR/RAD *       * ANG/DEG *
	 R(1,2)           =         2.085091	       1.103383
	 R(1,3)           =         2.085091	       1.103383
	 B(2,1,3)         =         2.073234	     118.787550

	Current energy   :       -39.0390366149

	Energy change for the previous step:
		Projected    :        -0.0041928274
		Actual       :        -0.0062890420
	Energy ratio indicates good step: Trust radius increased to 8.000e-01.


	Performing BFGS update with previous 1 gradient(s).
	Following RFO solution 0.
	Projected energy change by RFO approximation:        -0.0023994951

	Back-transformation to cartesian coordinates...
	Successfully converged to displaced geometry.

	---Internal Coordinate Step in ANG or DEG, aJ/ANG or AJ/DEG ---
	 ----------------------------------------------------------------------
	 Coordinate             Previous        Force       Change         New 
	 ----------             --------       ------       ------       ------
	 R(1,2)          =      1.103383    -0.025969    -0.010163     1.093220
	 R(1,3)          =      1.103383    -0.025969    -0.010163     1.093220
	 B(2,1,3)        =    118.787550     0.001930    10.565839   129.353389
	 ----------------------------------------------------------------------

	Convergence Check Cycle    2: (using internal coordinates in au)
	                    Actual        Tolerance     Converged?
	----------------------------------------------------------
	MAX Force           2.5e-02        1.0e-06          no
	Energy Change      -6.3e-03        1.0e-07          no
	MAX Displacement    1.8e-01        1.0e-06          no
	----------------------------------------------------------
	Writing optimization data to binary file.
	Structure for next step:
	Cartesian Geometry (au)
	    C     0.0000000000   0.0000000000  -0.1270789139
	    H     0.0000000000  -1.8673723527   0.7565534288
	    H    -0.0000000000   1.8673723527   0.7565534288
			--------------------------
			 OPTKING Finished Execution 
			--------------------------

*** tstart() called on QuickSilver.local
*** at Mon Jan 23 14:56:04 2012


         ---------------------------------------------------------
                                   SCF
            by Justin Turney, Rob Parrish, and Andy Simmonett
                              UHF Reference
                        1 Threads,    250 MiB Core
         ---------------------------------------------------------

  ==> Geometry <==

    Molecular point group: c2v

    Geometry (in Angstrom), charge = 0, multiplicity = 3:

       Center              X                  Y                   Z       
    ------------   -----------------  -----------------  -----------------
           C          0.000000000000     0.000000000000    -0.067247264947
           H          0.000000000000    -0.988170889020     0.400350831587
           H         -0.000000000000     0.988170889020     0.400350831587

    Number of unique atoms: 2

    Atoms equivalency:
       unique atom 0: 0 
       unique atom 1: 1 2 

  Running in c2v symmetry.

  Nuclear repulsion =    6.076401254465261

  Charge       = 0
  Multiplicity = 3
  Electrons    = 8
  Nalpha       = 5
  Nbeta        = 3

  ==> Algorithm <==

  SCF Algorithm Type is PK.
  DIIS enabled.
  MOM disabled.
  Fractional occupation disabled.
  Guess Type is CORE.
  Energy threshold   = 1.00e-10
  Density threshold  = 1.00e-10
  Integral threshold = 0.00e+00

  ==> Primary Basis: CC-PVDZ <==

  Basis Set
    Number of shells: 12
    Number of basis function: 24
    Number of Cartesian functions: 25
    Spherical Harmonics?: true
    Max angular momentum: 2

  ==> Pre-Iterations <==

  Minimum eigenvalue in the overlap matrix is 3.2276360618E-02.
  Using Symmetric Orthogonalization.
  SCF Guess: Core (One-Electron) Hamiltonian.

  Initial UHF energy:   -28.43759170845021

   -------------------------------------------------------
    Irrep   Nso     Nmo     Nalpha   Nbeta   Ndocc  Nsocc
   -------------------------------------------------------
     A1        11      11       3       2       2       1
     A2         2       2       0       0       0       0
     B1         4       4       1       0       0       1
     B2         7       7       1       1       1       0
   -------------------------------------------------------
    Total      24      24       5       3       3       2
   -------------------------------------------------------

  ==> Integral Setup <==

 MINTS: Wrapper to libmints.
   by Justin Turney

   Calculation information:
      Number of atoms:                   3
      Number of AO shells:              12
      Number of SO shells:               9
      Number of primitives:             32
      Number of atomic orbitals:        25
      Number of basis functions:        24

      Number of irreps:                  4
      Number of functions per irrep: [  11    2    4    7 ]

      Overlap, kinetic, potential, dipole, and quadrupole integrals
        stored in file 35.

      Computing two-electron integrals...done
      Computed 11412 non-zero two-electron integrals.
        Stored in file 33.

  ==> Iterations <==

                        Total Energy        Delta E     Density RMS

   @UHF iter   1:   -35.19645491768138   -6.75886e+00   0.00000e+00 
   @UHF iter   2:   -38.13754523832194   -2.94109e+00   2.50528e-01 DIIS
   @UHF iter   3:   -38.90932971461956   -7.71784e-01   1.47287e-01 DIIS
   @UHF iter   4:   -38.92432527749414   -1.49956e-02   1.50067e-02 DIIS
   @UHF iter   5:   -38.92625164133784   -1.92636e-03   4.88400e-03 DIIS
   @UHF iter   6:   -38.92655220758495   -3.00566e-04   1.60021e-03 DIIS
   @UHF iter   7:   -38.92657685174952   -2.46442e-05   3.07906e-04 DIIS
   @UHF iter   8:   -38.92657855428514   -1.70254e-06   3.52418e-05 DIIS
   @UHF iter   9:   -38.92657869417560   -1.39890e-07   1.35272e-05 DIIS
   @UHF iter  10:   -38.92657871306498   -1.88894e-08   7.45488e-06 DIIS
   @UHF iter  11:   -38.92657871381517   -7.50184e-10   1.25949e-06 DIIS
   @UHF iter  12:   -38.92657871383292   -1.77494e-11   2.63976e-07 DIIS
   @UHF iter  13:   -38.92657871383383   -9.16600e-13   6.12871e-08 DIIS
   @UHF iter  14:   -38.92657871383388   -4.97380e-14   1.12210e-08 DIIS
   @UHF iter  15:   -38.92657871383387    1.42109e-14   1.39690e-09 DIIS
   @UHF iter  16:   -38.92657871383384    2.84217e-14   2.67049e-10 DIIS

  ==> Post-Iterations <==

	Orbital Energies (a.u.)
	-----------------------

	Alpha Occupied:                                                       

	   1A1   -11.271882     2A1    -0.944105     1B2    -0.605223  
	   3A1    -0.455696     1B1    -0.408527  

	Alpha Virtual:                                                        

	   4A1     0.197219     2B2     0.255284     5A1     0.605303  
	   3B2     0.653919     2B1     0.654205     6A1     0.677759  
	   4B2     0.884221     7A1     0.992520     1A2     1.159201  
	   8A1     1.268259     3B1     1.285037     5B2     1.573662  
	   9A1     1.719601     4B1     1.890684     6B2     2.047064  
	   2A2     2.147858    10A1     2.244974     7B2     2.734672  
	  11A1     2.845497  

	Beta Occupied:                                                        

	   1A1   -11.222718     2A1    -0.771528     1B2    -0.571647  

	Beta Virtual:                                                         

	   3A1     0.129130     1B1     0.159282     4A1     0.221827  
	   2B2     0.277022     5A1     0.654812     3B2     0.691925  
	   6A1     0.823531     2B1     0.824125     4B2     0.930474  
	   7A1     1.051801     1A2     1.232071     8A1     1.401513  
	   3B1     1.432290     5B2     1.587372     9A1     1.788420  
	   4B1     1.924248     6B2     2.100504     2A2     2.195677  
	  10A1     2.270703     7B2     2.754558    11A1     2.872036  

	Final Occupation by Irrep:
	         A1    A2    B1    B2 
	DOCC [     2,    0,    0,    1 ]
	SOCC [     1,    0,    1,    0 ]

  Energy converged.

  @UHF Final Energy:   -38.92657871383384

  ==> Properties <==
  Nuclear Dipole Moment: (a.u.)
     X:     0.0000      Y:     0.0000      Z:     0.7506

  Electronic Dipole Moment: (a.u.)
     X:     0.0000      Y:     0.0000      Z:    -0.5241

  Dipole Moment: (a.u.)
     X:     0.0000      Y:     0.0000      Z:     0.2265     Total:     0.2265

  Dipole Moment: (Debye)
     X:     0.0000      Y:     0.0000      Z:     0.5758     Total:     0.5758


  @Spin Contamination Metric:  0.01494
  @S^2 Expected:               2.00000
  @S^2 Observed:               2.01494

  Saving occupied orbitals to File 180.

[...]
    12        -0.115336184966865    6.263e-08    0.011141    0.000000    0.000000

	Iterations converged.


	Largest TIA Amplitudes:
	          1   0        -0.0093577088
	          1   1        -0.0087944978
	          4  13        -0.0048114370
	          4  16         0.0044327313
	          3  10        -0.0036591227
	          4  14         0.0033212541
	          3  11        -0.0032891024
	          2   1         0.0029778831
	          2   5        -0.0029113207
	          2   4        -0.0028837690

	Largest Tia Amplitudes:
	          1   0         0.0163607346
	          1   2         0.0126941785
	          1   1         0.0077639303
	          2  17         0.0074147454
	          1   4        -0.0068840035
	          1   6        -0.0054054981
	          2  19         0.0042660185
	          1   7        -0.0038756863
	          2  20         0.0037051100
	          2  15         0.0032623280

	Largest TIJAB Amplitudes:
	  3   2  10   2        -0.0339596390
	  3   2  11   4        -0.0249883214
	  4   3   8   1         0.0220070898
	  4   3  13  10        -0.0205033708
	  4   3  15  10        -0.0205028893
	  4   2  15   1         0.0175595691
	  4   2  13   1         0.0173325827
	  4   2  14   2        -0.0162092966
	  3   1  10   3         0.0152408758
	  3   2  10   1         0.0148749334

	Largest Tijab Amplitudes:
	  2   1  11   9        -0.0101389220
	  2   1  15   1        -0.0070495527
	  2   1  16   0         0.0069277839
	  2   1  17   0        -0.0064810123
	  2   1  16   1        -0.0063202259
	  2   1  17   4         0.0061999680
	  2   1  15   4         0.0061423200
	  2   1  15   0        -0.0052970266
	  2   1  16   3        -0.0047692466
	  2   1  12   9        -0.0044168931

	Largest TIjAb Amplitudes:
	  4   2   1   2        -0.0360685543
	  4   2  15  17        -0.0346116273
	  3   1   0  11        -0.0285197383
	  3   1   1  11        -0.0283469091
	  2   1   4   0        -0.0271350764
	  4   2  13  15        -0.0263895228
	  2   1  11  11         0.0263650194
	  3   1  11   0        -0.0258987650
	  2   2   2  17        -0.0258007319
	  3   2  10  17        -0.0253431357

	SCF energy       (chkpt)              =  -38.926586964947376
	Reference energy (file100)            =  -38.926586964947383

	Opposite-spin MP2 correlation energy  =    0.000000000000000
	Same-spin MP2 correlation energy      =    0.000000000000000
	MP2 correlation energy                =   -0.095160917697163
      * MP2 total energy                      =  -39.021747882644547

	Opposite-spin CCSD correlation energy =    0.000000000000000
	Same-spin CCSD correlation energy     =    0.000000000000000
	CCSD correlation energy               =   -0.115336184966865
      * CCSD total energy                     =  -39.041923149914247


*** tstop() called on QuickSilver.local at Mon Jan 23 14:56:36 2012
Module time:
	user time   =       0.43 seconds =       0.01 minutes
	system time =       0.54 seconds =       0.01 minutes
	total time  =          4 seconds =       0.07 minutes
Total time:
	user time   =       7.28 seconds =       0.12 minutes
	system time =       7.17 seconds =       0.12 minutes
	total time  =         42 seconds =       0.70 minutes

*** tstart() called on QuickSilver.local
*** at Mon Jan 23 14:56:36 2012


			**************************
			*                        *
			*         CCHBAR         *
			*                        *
			**************************


*** tstop() called on QuickSilver.local at Mon Jan 23 14:56:36 2012
Module time:
	user time   =       0.06 seconds =       0.00 minutes
	system time =       0.07 seconds =       0.00 minutes
	total time  =          0 seconds =       0.00 minutes
Total time:
	user time   =       7.34 seconds =       0.12 minutes
	system time =       7.24 seconds =       0.12 minutes
	total time  =         42 seconds =       0.70 minutes

*** tstart() called on QuickSilver.local
*** at Mon Jan 23 14:56:36 2012


			**************************
			*        CCLAMBDA        *
			**************************


	Nuclear Rep. energy (chkpt)   =    6.070065944956523
	Reference           (chkpt)   = 2
	SCF energy          (chkpt)   =  -38.926586964947376
	Reference energy    (CC_INFO) =  -38.926586964947383
	CCSD energy         (CC_INFO) =   -0.115336184966865
	Total CCSD energy   (CC_INFO) =  -39.041923149914247

	Input parameters:
	-----------------
	Maxiter       =      50
	Convergence   = 1.0e-07
	Restart       =     No
	Cache Level   =     2
	Model III     =     No
	DIIS          =     Yes
	AO Basis      =     No
	ABCD            =     NEW
	Local CC        =     No
	Paramaters for left-handed eigenvectors:
	    Irr   Root  Ground-State?    EOM energy        R0
	  1   0     0        Yes       0.0000000000   1.0000000000
	Labels for eigenvector 1:
	LIA 0 -1, Lia 0 -1, LIJAB 0 -1, Lijab 0 -1, LIjAb 0 -1, 2LIjAb - LIjbA 0 -1
	Symmetry of left-hand state: B1
	Symmetry of left-hand eigenvector: A1

	          Solving Lambda Equations
	          ------------------------
	Iter     PseudoEnergy or Norm         RMS  
	----     ---------------------     --------
	   0        -0.115301055511623    3.034e-08
	   1        -0.112925897979665    5.358e-03
	   2        -0.112415481338562    1.249e-03
	   3        -0.112365754005408    3.439e-04
	   4        -0.112363503925387    1.223e-04
	   5        -0.112361272689292    4.740e-05
	   6        -0.112360669734451    1.376e-05
	   7        -0.112360697068950    4.250e-06
	   8        -0.112360711648736    1.330e-06
	   9        -0.112360714026007    4.071e-07
	  10        -0.112360715130247    1.114e-07
	  11        -0.112360715050898    3.034e-08

	Largest LIA Amplitudes:
	          1   1        -0.0090138699
	          1   0        -0.0090004173
	          4  13        -0.0053546921
	          4  15        -0.0046373175
	          4  14         0.0045665515
	          4  16         0.0044366427
	          3  11        -0.0037581302
	          3  10        -0.0034140735
	          2   4        -0.0033768530
	          2   5        -0.0030684896

	Largest Lia Amplitudes:
	          1   0         0.0154603437
	          1   2         0.0115168520
	          1   1         0.0080415296
	          2  17         0.0068116279
	          1   4        -0.0067237752
	          1   6        -0.0050129879
	          2  19         0.0039481233
	          1   7        -0.0036032876
	          2  15         0.0035012035
	          2  20         0.0033081288

	Largest LIJAB Amplitudes:
	  3   2  10   2        -0.0333965784
	  3   2  11   4        -0.0243689761
	  4   3   8   1         0.0213249420
	  4   3  13  10        -0.0200008568
	  4   3  15  10        -0.0199917930
	  4   2  15   1         0.0170288348
	  4   2  13   1         0.0168188081
	  4   2  14   2        -0.0157093298
	  3   1  10   3         0.0151181659
	  3   2  10   1         0.0146602802

	Largest Lijab Amplitudes:
	  2   1  11   9        -0.0097697556
	  2   1  15   1        -0.0068226784
	  2   1  16   0         0.0066594604
	  2   1  17   0        -0.0063052421
	  2   1  17   4         0.0061197114
	  2   1  16   1        -0.0061044419
	  2   1  15   4         0.0060350137
	  2   1  15   0        -0.0051513789
	  2   1  16   3        -0.0046059586
	  2   1  12   9        -0.0042725095

	Largest LIjAb Amplitudes:
	  4   2   1   2        -0.0350093745
	  4   2  15  17        -0.0338009973
	  3   1   0  11        -0.0276689067
	  3   1   1  11        -0.0274481276
	  2   1   4   0        -0.0263521553
	  4   2  13  15        -0.0257300400
	  2   1  11  11         0.0255618468
	  2   2   2  17        -0.0252307237
	  3   1  11   0        -0.0251780971
	  3   2  10  17        -0.0247594850

	Iterations converged.

	Overlap <L|e^T> =        0.94996552372

*** tstop() called on QuickSilver.local at Mon Jan 23 14:56:37 2012
Module time:
	user time   =       0.16 seconds =       0.00 minutes
	system time =       0.28 seconds =       0.00 minutes
	total time  =          1 seconds =       0.02 minutes
Total time:
	user time   =       7.50 seconds =       0.12 minutes
	system time =       7.52 seconds =       0.13 minutes
	total time  =         43 seconds =       0.72 minutes

*** tstart() called on QuickSilver.local
*** at Mon Jan 23 14:56:37 2012


			**************************
			*                        *
			*        CCDENSITY       *
			*                        *
			**************************


	Input parameters:
	-----------------
	Wave function    =   CCSD
	Reference wfn    =   UHF
	Dertype          = 1
	Tolerance        = 1.0e-14
	Cache Level      = 2
	AO Basis         = No
	OPDM Only        = No
	Relax OPDM       = Yes
	Compute Xi       = No
	Use Zeta         = No
	Xi connected     = Yes

	Nuclear Rep. energy (chkpt)   =    6.070065944956523
	SCF energy          (chkpt)   =  -38.926586964947376
	Reference energy    (file100) =  -38.926586964947383
	CCSD energy         (CC_INFO) =   -0.115336184966865
	Total CCSD energy   (CC_INFO) =  -39.041923149914247
	Number of States = 1

	Ground?  State     EOM Energy       R0
	  Yes     0 A1    0.0000000000   1.00000000

	Energies re-computed from CC density:
	-------------------------------------
	One-electron energy        =    0.141267368681890
	IJKL energy                =    0.027633520682017
	IJKA energy                =   -0.000445214358763
	IJAB energy                =   -0.224768564276339
	IBJA energy                =   -0.089935015041214
	CIAB energy                =   -0.001250750462852
	ABCD energy                =    0.032162470270740
	Total two-electron energy  =   -0.256603553186412
	CCSD    correlation energy =   -0.115336184504522
	Total CCSD    energy       =  -39.041923149451904

	Energies re-computed from Fock-adjusted CC density:
	---------------------------------------------------
	One-electron energy        =    0.089119712916515
	IJKL energy                =   -0.338081750818334
	IJKA energy                =    0.009809850242995
	IJAB energy                =   -0.224768564276339
	IBJA energy                =    0.317672847622621
	CIAB energy                =   -0.001250750462852
	ABCD energy                =    0.032162470270740
	Total two-electron energy  =   -0.204455897421169
	   CCSD correlation energy =   -0.115336184504654
	Total    CCSD energy       =  -39.041923149452039

	Energies re-computed from Mulliken density:
	-------------------------------------------
	One-electron energy        =    0.089119712916515
	IjKl energy                =   -0.186882138809892
	IJKL energy                =   -0.109479744073370
	ijkl energy                =   -0.041719867935071
	IjKa+iJkA energy           =    0.014535555964195
	IJKA energy                =   -0.021799185932487
	ijka energy                =    0.017073480211287
	IjAb energy                =   -0.171438402372054
	IJAB energy                =   -0.041750174974346
	ijab energy                =   -0.004440891529470
	IBJA energy                =    0.104027866280575
	ibja energy                =    0.047016037652394
	iBjA+IbJa energy           =    0.159489848289184
	cIaB+CiAb energy           =   -0.001387429281255
	CIAB energy                =    0.000207614282508
	ciab energy                =   -0.000070935464105
	AbCd energy                =    0.028068763769930
	ABCD energy                =    0.003823724271695
	abcd energy                =    0.000269982229115
	Total two-electron energy  =   -0.204455897421169
	CCSD    correlation energy =   -0.115336184504654
	Total CCSD    energy       =  -39.041923149452039

*** tstop() called on QuickSilver.local at Mon Jan 23 14:56:37 2012
Module time:
	user time   =       0.10 seconds =       0.00 minutes
	system time =       0.12 seconds =       0.00 minutes
	total time  =          0 seconds =       0.00 minutes
Total time:
	user time   =       7.60 seconds =       0.13 minutes
	system time =       7.64 seconds =       0.13 minutes
	total time  =         43 seconds =       0.72 minutes

*** tstart() called on QuickSilver.local
*** at Mon Jan 23 14:56:37 2012

 DERIV: Derivative code.
   by Justin Turney

  Cartesian Displacement SALCs
  By SALC:
  Number of SALCs: 3, nirreps: 1
  Project out translations: False
  Project out rotations: False
	irrep = 0, ncomponent = 1
		0: atom 0, direction z, coef 1.000000
	irrep = 0, ncomponent = 2
		0: atom 1, direction y, coef 0.707107
		1: atom 2, direction y, coef -0.707107
	irrep = 0, ncomponent = 2
		0: atom 1, direction z, coef 0.707107
		1: atom 2, direction z, coef 0.707107

  By Atomic Center:
  Number of atomic centers: 3
   Atomic Center 0:
	x component, size = 0
	y component, size = 0
	z component, size = 1
		0: salc 0, irrep 0, coef 1.000000
   Atomic Center 1:
	x component, size = 0
	y component, size = 1
		0: salc 1, irrep 0, coef 0.707107
	z component, size = 1
		0: salc 2, irrep 0, coef 0.707107
   Atomic Center 2:
	x component, size = 0
	y component, size = 1
		0: salc 1, irrep 0, coef -0.707107
	z component, size = 1
		0: salc 2, irrep 0, coef 0.707107

    Molecular point group: c2v

    Geometry (in Bohr), charge = 0, multiplicity = 3:

       Center              X                  Y                   Z       
    ------------   -----------------  -----------------  -----------------
           C          0.000000000000     0.000000000000    -0.120303804150
           H          0.000000000000    -1.890155278409     0.716218393009
           H         -0.000000000000     1.890155278409     0.716218393009

	Presorting MO-basis TPDMs.
	Sorting File: MO TPDM (AA|AA) nbuckets = 1
	Sorting File: MO TPDM (AA|aa) nbuckets = 1
	Sorting File: MO TPDM (aa|aa) nbuckets = 1
	Starting first half-transformation.
	Sorting half-transformed TPDMs.
	First half integral transformation complete.




  -Nuclear Repulsion Energy 1st Derivatives:
     Atom            X                  Y                   Z
    ------   -----------------  -----------------  -----------------
       1        0.000000000000     0.000000000000     1.136690582748
       2        0.000000000000     1.354174204538    -0.568345291374
       3        0.000000000000    -1.354174204538    -0.568345291374


  -One-electron contribution to gradient:
     Atom            X                  Y                   Z
    ------   -----------------  -----------------  -----------------
       1        0.000000000000     0.000000000000    -2.841088991824
       2        0.000000000000    -3.366402993739     1.420544495912
       3        0.000000000000     3.366402993739     1.420544495912


  -Lagrangian contribution to gradient:
     Atom            X                  Y                   Z
    ------   -----------------  -----------------  -----------------
       1        0.000000000000     0.000000000000     0.187618964281
       2        0.000000000000     0.204590913307    -0.093809482141
       3        0.000000000000    -0.204590913307    -0.093809482141


  -Two-electron contribution to gradient:
     Atom            X                  Y                   Z
    ------   -----------------  -----------------  -----------------
       1        0.000000000000     0.000000000000     1.516779521057
       2        0.000000000000     1.807637982071    -0.758389760529
       3        0.000000000000    -1.807637982071    -0.758389760529


  -Total gradient:
     Atom            X                  Y                   Z
    ------   -----------------  -----------------  -----------------
       1        0.000000000000     0.000000000000     0.000000076263
       2        0.000000000000     0.000000106177    -0.000000038132
       3        0.000000000000    -0.000000106177    -0.000000038132


*** tstop() called on QuickSilver.local at Mon Jan 23 14:56:38 2012
Module time:
	user time   =       0.20 seconds =       0.00 minutes
	system time =       0.03 seconds =       0.00 minutes
	total time  =          1 seconds =       0.02 minutes
Total time:
	user time   =       7.80 seconds =       0.13 minutes
	system time =       7.67 seconds =       0.13 minutes
	total time  =         44 seconds =       0.73 minutes

			----------------------------------
			 OPTKING: for geometry optimizations  
			  - R.A. King,  Bethel University   
			------------------------------------

	Previous internal coordinate definitions found.
	---Fragment 1 Geometry and Gradient---
	 C           0.0000000000        0.0000000000       -0.1203038042
	 H           0.0000000000       -1.8901552784        0.7162183930
	 H          -0.0000000000        1.8901552784        0.7162183930
	             0.0000000000        0.0000000000        0.0000000763
	             0.0000000000        0.0000001062       -0.0000000381
	             0.0000000000       -0.0000001062       -0.0000000381

	---Fragment 1 Intrafragment Coordinates---
	 * Coordinate *           * BOHR/RAD *       * ANG/DEG *
	 R(1,2)           =         2.066992	       1.093805
	 R(1,3)           =         2.066992	       1.093805
	 B(2,1,3)         =         2.308280	     132.254706

	Current energy   :       -39.0419231499

	Energy change for the previous step:
		Projected    :        -0.0000000000
		Actual       :        -0.0000000000

	Performing BFGS update with previous 6 gradient(s).
	Denominators (dg)(dq) or (dq)(dq) are very small.
	 Skipping Hessian update for step 5.
	Denominators (dg)(dq) or (dq)(dq) are very small.
	 Skipping Hessian update for step 6.
	Following RFO solution 0.
	Projected energy change by RFO approximation:        -0.0000000000

	Back-transformation to cartesian coordinates...
	Successfully converged to displaced geometry.

	---Internal Coordinate Step in ANG or DEG, aJ/ANG or AJ/DEG ---
	 ----------------------------------------------------------------------
	 Coordinate             Previous        Force       Change         New 
	 ----------             --------       ------       ------       ------
	 R(1,2)          =      1.093805     0.000001     0.000000     1.093805
	 R(1,3)          =      1.093805     0.000001     0.000000     1.093805
	 B(2,1,3)        =    132.254706     0.000000     0.000006   132.254712
	 ----------------------------------------------------------------------

	Convergence Check Cycle    7: (using internal coordinates in au)
	                    Actual        Tolerance     Converged?
	----------------------------------------------------------
	MAX Force           1.1e-07        1.0e-06         yes
	Energy Change      -1.3e-11        1.0e-07         yes
	MAX Displacement    3.1e-07        1.0e-06         yes
	----------------------------------------------------------

	 **** Optimization is complete! ****

	            ****  Optimization Summary  ****
	----------------------------------------------------------------------------
	 Step         Energy             Delta(E)      MAX force    MAX Delta(q)  
	----------------------------------------------------------------------------
	   1    -39.032747572937    -39.032747572937    4.89e-02     4.89e-02
	   2    -39.039036614898     -0.006289041961    2.54e-02     2.54e-02
	   3    -39.041799268590     -0.002762653691    4.92e-03     4.92e-03
	   4    -39.041920355905     -0.000121087315    7.03e-04     7.03e-04
	   5    -39.041923143775     -0.000002787870    2.89e-05     2.89e-05
	   6    -39.041923149901     -0.000000006126    2.22e-06     2.22e-06
	   7    -39.041923149914     -0.000000000013    1.13e-07     1.13e-07
	----------------------------------------------------------------------

	Writing optimization data to binary file.
	Final energy is    -39.0419231499142
	Final (previous) structure:
	Cartesian Geometry (au)
	    C     0.0000000000   0.0000000000  -0.1203038042
	    H     0.0000000000  -1.8901552784   0.7162183930
	    H    -0.0000000000   1.8901552784   0.7162183930
	Saving final (previous) structure.
			--------------------------
			 OPTKING Finished Execution 
			--------------------------

	Final optimized geometry and variables (in Angstrom):

	C
	H     1    1.093805
	H     1    1.093805     2  132.254706


*** PSI4 exiting successfully. Buy a developer a beer!
