    -----------------------------------------------------------------------
          PSI4: An Open-Source Ab Initio Electronic Structure Package
                              PSI 4.0.0-alpha Driver

    J. M. Turney, A. C. Simmonett, R. M. Parrish, E. G. Hohenstein,
    F. Evangelista, J. T. Fermann, B. J. Mintz, L. A. Burns, J. J. Wilke,
    M. L. Abrams, N. J. Russ, M. L. Leininger, C. L. Janssen, E. T. Seidl,
    W. D. Allen, H. F. Schaefer, R. A. King, E. F. Valeev, C. D. Sherrill,
    and T. D. Crawford, WIREs Comput. Mol. Sci., (2011)
                         Additional Contributions by
    -----------------------------------------------------------------------


    Using LocalCommunicator (Number of processes = 1)

    Memory level set to 256.000 MB

  ==> Input File <==

--------------------------------------------------------------------------
#! cc36: UHF-CC2/cc-pVDZ energy of H2O+.

# H2O Re geom from Olsen et al., JCP 104, 8007 (1996)
molecule h2o {
  1 2
  O 0.0  0.00000000 -0.00900000
  H 0.0 -1.51526300 -1.05889800
  H 0.0  1.51526300 -1.05889800
  units bohr
}

set {
  wfn cc2
  reference uhf
  basis "cc-pVDZ"
  docc = [3, 0, 0, 1]
  socc = [0, 0, 1, 0]
}

energy('cc2')
clean()

--------------------------------------------------------------------------

*** tstart() called on lawn-143-215-105-45.lawn.gatech.edu
*** at Thu Jan  5 14:06:36 2012


         ---------------------------------------------------------
                                   SCF
            by Justin Turney, Rob Parrish, and Andy Simmonett
                              UHF Reference
                        1 Threads,    256 MiB Core
         ---------------------------------------------------------

  ==> Geometry <==

    Molecular point group: c2v

    Geometry (in Bohr), charge = 1, multiplicity = 2:

       Center              X                  Y                   Z       
    ------------   -----------------  -----------------  -----------------
           O          0.000000000000     0.000000000000     0.117499201619
           H          0.000000000000    -1.515263000000    -0.932398798381
           H          0.000000000000     1.515263000000    -0.932398798381

    Number of unique atoms: 2

    Atoms equivalency:
       unique atom 0: 0 
       unique atom 1: 1 2 

  Running in c2v symmetry.

  Nuclear repulsion =    9.009354229662666

  Charge       = 1
  Multiplicity = 2
  Electrons    = 9
  Nalpha       = 5
  Nbeta        = 4

  ==> Algorithm <==

  SCF Algorithm Type is PK.
  DIIS enabled.
  MOM disabled.
  Guess Type is CORE.
  Energy threshold   = 1.00e-08
  Density threshold  = 1.00e-08
  Integral threshold = 0.00e+00

  ==> Primary Basis: CC-PVDZ <==

  Basis Set
    Number of shells: 12
    Number of basis function: 24
    Number of Cartesian functions: 25
    Spherical Harmonics?: true
    Max angular momentum: 2

  ==> Pre-Iterations <==

  Minimum eigenvalue in the overlap matrix is 3.6636430474E-02.
  Using Symmetric Orthogonalization.
  SCF Guess: Core (One-Electron) Hamiltonian.

  Initial UHF energy:   -54.37136335669418

   -------------------------------------------------------
    Irrep   Nso     Nmo     Nalpha   Nbeta   Ndocc  Nsocc
   -------------------------------------------------------
     A1        11      11       3       3       3       0
     A2         2       2       0       0       0       0
     B1         4       4       1       0       0       1
     B2         7       7       1       1       1       0
   -------------------------------------------------------
    Total      24      24       5       4       4       1
   -------------------------------------------------------

  ==> Integral Setup <==

 MINTS: Wrapper to libmints.
   by Justin Turney

   Calculation information:
      Number of atoms:                   3
      Number of AO shells:              12
      Number of SO shells:               9
      Number of primitives:             32
      Number of atomic orbitals:        25
      Number of basis functions:        24

      Number of irreps:                  4
      Number of functions per irrep: [  11    2    4    7 ]

      Computing integrals...done

      Computed 11412 non-zero integrals.

  ==> Iterations <==

                        Total Energy        Delta E     Density RMS

   @UHF iter   1:   -70.68554325330804   -1.63142e+01   0.00000e+00  
   @UHF iter   2:   -73.53919315021389   -2.85365e+00   2.10339e-01 DIIS
   @UHF iter   3:   -75.59989246771296   -2.06070e+00   1.14682e-01 DIIS
   @UHF iter   4:   -75.63200367885003   -3.21112e-02   1.00589e-02 DIIS
   @UHF iter   5:   -75.63390630921491   -1.90263e-03   2.90204e-03 DIIS
   @UHF iter   6:   -75.63405073460021   -1.44425e-04   8.41538e-04 DIIS
   @UHF iter   7:   -75.63406070575425   -9.97115e-06   1.56089e-04 DIIS
   @UHF iter   8:   -75.63406211152424   -1.40577e-06   1.54968e-05 DIIS
   @UHF iter   9:   -75.63406241399861   -3.02474e-07   1.01614e-05 DIIS
   @UHF iter  10:   -75.63406242068041   -6.68180e-09   2.90178e-06 DIIS
   @UHF iter  11:   -75.63406242079115   -1.10745e-10   4.79710e-07 DIIS
   @UHF iter  12:   -75.63406242079746   -6.30962e-12   4.70175e-08 DIIS
   @UHF iter  13:   -75.63406242079778   -3.12639e-13   1.50864e-08 DIIS

  ==> Post-Iterations <==

	Orbital Energies (a.u.)
	-----------------------

	Alpha Occupied:                                                       

	   1A1   -21.134242     2A1    -1.897912     1B2    -1.215114  
	   1B1    -1.123201     3A1    -1.080004  

	Alpha Virtual:                                                        

	   4A1    -0.144520     2B2    -0.061415     3B2     0.404336  
	   5A1     0.410920     2B1     0.675866     6A1     0.712554  
	   4B2     0.824019     1A2     1.021859     7A1     1.078877  
	   3B1     1.272432     8A1     1.409410     5B2     1.483004  
	   9A1     1.958117     6B2     1.978042     4B1     2.676405  
	   2A2     2.781501    10A1     2.928831    11A1     3.375924  
	   7B2     3.597505  

	Beta Occupied:                                                        

	   1A1   -21.089002     2A1    -1.739799     1B2    -1.177609  
	   3A1    -1.028404  

	Beta Virtual:                                                         

	   1B1    -0.307757     4A1    -0.129916     2B2    -0.052917  
	   3B2     0.403481     5A1     0.425377     6A1     0.733770  
	   4B2     0.840802     2B1     0.874092     1A2     1.051558  
	   7A1     1.091152     3B1     1.299284     8A1     1.458681  
	   5B2     1.480208     6B2     1.989451     9A1     2.013603  
	   4B1     2.782780     2A2     2.886343    10A1     2.973700  
	  11A1     3.443997     7B2     3.615709  

	Final Occupation by Irrep:
	         A1    A2    B1    B2 
	DOCC [     3,    0,    0,    1 ]
	SOCC [     0,    0,    1,    0 ]

  Energy converged.

  @UHF Final Energy:   -75.63406242079778

  ==> Properties <==
  Nuclear Dipole Moment: (a.u.)
     X:     0.0000      Y:     0.0000      Z:    -0.9248

  Electronic Dipole Moment: (a.u.)
     X:     0.0000      Y:     0.0000      Z:    -0.0328

  Dipole Moment: (a.u.)
     X:     0.0000      Y:     0.0000      Z:    -0.9576     Total:     0.9576

  Dipole Moment: (Debye)
     X:     0.0000      Y:     0.0000      Z:    -2.4340     Total:     2.4340


  @Spin Contamination Metric:  0.00641
  @S^2 Expected:               0.75000
  @S^2 Observed:               0.75641

  Saving occupied orbitals to File 180.

*** tstop() called on lawn-143-215-105-45.lawn.gatech.edu at Thu Jan  5 14:06:36 2012
Module time:
	user time   =       0.13 seconds =       0.00 minutes
	system time =       0.01 seconds =       0.00 minutes
	total time  =          0 seconds =       0.00 minutes
Total time:
	user time   =       0.13 seconds =       0.00 minutes
	system time =       0.01 seconds =       0.00 minutes
	total time  =          0 seconds =       0.00 minutes

*** tstart() called on lawn-143-215-105-45.lawn.gatech.edu
*** at Thu Jan  5 14:06:36 2012


	**************************************************
	* TRANSQT2: Program to transform integrals from  *
	*           the SO basis to the MO basis.        *
	*                                                *
	*            Daniel, David, & Justin             *
	**************************************************


	Input parameters:
	-----------------
	Wave function   =	CC2
	Backtransform   =	No
	Print Level     =	1
	Print TEIs      =	No
	Reference wfn   =	UHF
	Derivative      =	None
	Delete TEI File =	Yes
	Memory (Mbytes) =	100.0
	Cache Level     =	2
	Cache Type      =	LRU
	Chkpt Parameters:
	--------------------
	Number of irreps     = 4
	Number of SOs        = 24
	Number of MOs        = 24
	Number of active MOs = 24

	Label	# SOs	# FZDC	# DOCC	# SOCC	# VIRT	# FZVR
	-----	-----	------	------	------	------	------
	 A1	   11	    0	    3	    0	    8	    0
	 A2	   2	    0	    0	    0	    2	    0
	 B1	   4	    0	    0	    1	    3	    0
	 B2	   7	    0	    1	    0	    6	    0

	Nuclear Rep. energy (chkpt) =      9.00935422966267
	SCF energy          (chkpt) =    -75.63406242079778

	Presorting SO-basis two-electron integrals.
	Sorting File: SO Ints (pq,rs) nbuckets = 1
	Frozen-core energy =    0.000000000000000
	Starting AA/AB first half-transformation.
	Sorting AA/AB half-transformed integrals.
	Starting AA second half-transformation.
	Starting AB second half-transformation.
	Starting BB first half-transformation.
	Sorting BB half-transformed integrals.
	Starting BB second half-transformation.
	Two-electron integral transformation complete.

*** tstop() called on lawn-143-215-105-45.lawn.gatech.edu at Thu Jan  5 14:06:36 2012
Module time:
	user time   =       0.02 seconds =       0.00 minutes
	system time =       0.01 seconds =       0.00 minutes
	total time  =          0 seconds =       0.00 minutes
Total time:
	user time   =       0.15 seconds =       0.00 minutes
	system time =       0.02 seconds =       0.00 minutes
	total time  =          0 seconds =       0.00 minutes

*** tstart() called on lawn-143-215-105-45.lawn.gatech.edu
*** at Thu Jan  5 14:06:36 2012


			**************************
			*                        *
			*         CCSORT         *
			*                        *
			**************************


	Input parameters:
	-----------------
	Wave function   =	CC2
	Reference wfn   =	UHF
	Derivative      =	None
	Memory (Mbytes) =	256.0
	AO Basis        =	NONE
	Make (ab|cd)    =	True
	Make unpacked (ab|cd) =	True
	Cache Level     =	2
	Cache Type      =	LRU
	Local CC        =     No


	Chkpt Parameters:
	--------------------
	Number of irreps     = 4
	Number of MOs        = 24
	Number of active MOs = 24

	Label	# MOs	# FZDC	# DOCC	# SOCC	# VIRT	# FZVR
	-----	-----	------	------	------	------	------
	 A1	   11	    0	    3	    0	    8	    0
	 A2	   2	    0	    0	    0	    2	    0
	 B1	   4	    0	    0	    1	    3	    0
	 B2	   7	    0	    1	    0	    6	    0

	Nuclear Rep. energy (chkpt) =      9.00935422966267
	SCF energy          (chkpt) =    -75.63406242079778

	Size of irrep 0 of <AB|CD> integrals:      0.002 (MW) /      0.018 (MB)
	Size of irrep 1 of <AB|CD> integrals:      0.001 (MW) /      0.009 (MB)
	Size of irrep 2 of <AB|CD> integrals:      0.001 (MW) /      0.010 (MB)
	Size of irrep 3 of <AB|CD> integrals:      0.003 (MW) /      0.023 (MB)
	Total:                                     0.008 (MW) /      0.061 (MB)

	Size of irrep 0 of <ab|cd> integrals:      0.003 (MW) /      0.020 (MB)
	Size of irrep 1 of <ab|cd> integrals:      0.002 (MW) /      0.013 (MB)
	Size of irrep 2 of <ab|cd> integrals:      0.002 (MW) /      0.015 (MB)
	Size of irrep 3 of <ab|cd> integrals:      0.003 (MW) /      0.025 (MB)
	Total:                                     0.009 (MW) /      0.073 (MB)

	Size of irrep 0 of <Ab|Cd> integrals:      0.013 (MW) /      0.108 (MB)
	Size of irrep 1 of <Ab|Cd> integrals:      0.005 (MW) /      0.044 (MB)
	Size of irrep 2 of <Ab|Cd> integrals:      0.006 (MW) /      0.051 (MB)
	Size of irrep 3 of <Ab|Cd> integrals:      0.012 (MW) /      0.097 (MB)
	Total:                                     0.037 (MW) /      0.299 (MB)

	Size of irrep 0 of <IA|BC> integrals:      0.004 (MW) /      0.030 (MB)
	Size of irrep 1 of <IA|BC> integrals:      0.001 (MW) /      0.008 (MB)
	Size of irrep 2 of <IA|BC> integrals:      0.001 (MW) /      0.011 (MB)
	Size of irrep 3 of <IA|BC> integrals:      0.003 (MW) /      0.024 (MB)
	Total:                                     0.009 (MW) /      0.073 (MB)

	Size of irrep 0 of <ia|bc> integrals:      0.004 (MW) /      0.029 (MB)
	Size of irrep 1 of <ia|bc> integrals:      0.001 (MW) /      0.006 (MB)
	Size of irrep 2 of <ia|bc> integrals:      0.001 (MW) /      0.010 (MB)
	Size of irrep 3 of <ia|bc> integrals:      0.003 (MW) /      0.023 (MB)
	Total:                                     0.009 (MW) /      0.068 (MB)

	Size of irrep 0 of <Ia|Bc> integrals:      0.004 (MW) /      0.032 (MB)
	Size of irrep 1 of <Ia|Bc> integrals:      0.001 (MW) /      0.009 (MB)
	Size of irrep 2 of <Ia|Bc> integrals:      0.002 (MW) /      0.014 (MB)
	Size of irrep 3 of <Ia|Bc> integrals:      0.003 (MW) /      0.025 (MB)
	Total:                                     0.010 (MW) /      0.080 (MB)

	Size of irrep 0 of <iA|bC> integrals:      0.003 (MW) /      0.028 (MB)
	Size of irrep 1 of <iA|bC> integrals:      0.001 (MW) /      0.005 (MB)
	Size of irrep 2 of <iA|bC> integrals:      0.001 (MW) /      0.007 (MB)
	Size of irrep 3 of <iA|bC> integrals:      0.003 (MW) /      0.023 (MB)
	Total:                                     0.008 (MW) /      0.063 (MB)

	Size of irrep 0 of tIjAb amplitudes:       0.001 (MW) /      0.009 (MB)
	Size of irrep 1 of tIjAb amplitudes:       0.000 (MW) /      0.001 (MB)
	Size of irrep 2 of tIjAb amplitudes:       0.000 (MW) /      0.002 (MB)
	Size of irrep 3 of tIjAb amplitudes:       0.001 (MW) /      0.005 (MB)
	Total:                                     0.002 (MW) /      0.017 (MB)


	Sorting File: A <IJ|KL> nbuckets = 1
	Sorting File: B <AB|CD> nbuckets = 1
	Sorting File: C <IA|JB> nbuckets = 1
	Sorting File: D <IJ|AB> nbuckets = 1
	Sorting File: E <AI|JK> nbuckets = 1
	Sorting File: F <IA|BC> nbuckets = 1
	Sorting File: F <AI|BC> nbuckets = 1
	Sorting File: A <ij|kl> nbuckets = 1
	Sorting File: B <ab|cd> nbuckets = 1
	Sorting File: C <ia|jb> nbuckets = 1
	Sorting File: D <ij|ab> nbuckets = 1
	Sorting File: E <ai|jk> nbuckets = 1
	Sorting File: F <ia|bc> nbuckets = 1
	Sorting File: F <ai|bc> nbuckets = 1
	Sorting File: A <Ij|Kl> nbuckets = 1
	Sorting File: B <Ab|Cd> nbuckets = 1
	Sorting File: C <Ia|Jb> nbuckets = 1
	Sorting File: C <Ai|Bj> nbuckets = 1
	Sorting File: D <Ij|Ab> nbuckets = 1
	Sorting File: E <Ai|Jk> nbuckets = 1
	Sorting File: E <Ij|Ka> nbuckets = 1
	Sorting File: F <Ia|Bc> nbuckets = 1
	Sorting File: F <aI|bC> nbuckets = 1
	Sorting File: F <Ab|Ci> nbuckets = 1
	Sorting File: F <Ai|Bc> nbuckets = 1
	One-electron energy          =   -117.80154637040916
	Two-electron (AA) energy     =      7.85329580679620
	Two-electron (BB) energy     =      4.64043020138065
	Two-electron (AB) energy     =     20.66440371177183
	Two-electron energy          =     33.15812971994868
	Frozen-core energy (transqt) =      0.00000000000000
	Reference energy             =    -75.63406242079782

*** tstop() called on lawn-143-215-105-45.lawn.gatech.edu at Thu Jan  5 14:06:36 2012
Module time:
	user time   =       0.07 seconds =       0.00 minutes
	system time =       0.06 seconds =       0.00 minutes
	total time  =          0 seconds =       0.00 minutes
Total time:
	user time   =       0.22 seconds =       0.00 minutes
	system time =       0.08 seconds =       0.00 minutes
	total time  =          0 seconds =       0.00 minutes

*** tstart() called on lawn-143-215-105-45.lawn.gatech.edu
*** at Thu Jan  5 14:06:36 2012

			**************************
			*                        *
			*        CCENERGY        *
			*                        *
			**************************

	Nuclear Rep. energy (chkpt)   =    9.009354229662666
	SCF energy          (chkpt)   =  -75.634062420797775
	Reference energy    (file100) =  -75.634062420797818

	Input parameters:
	-----------------
	Wave function   =      CC2
	Reference wfn   =     ROHF changed to UHF for Semicanonical Orbitals
	Memory (Mbytes) =     256.0
	Maxiter         =     50
	Convergence     =     1.0e-07
	Restart         =     No
	DIIS            =     Yes
	AO Basis        =     NONE
	ABCD            =     NEW
	Cache Level     =     2
	Cache Type      =     LRU
	Print Level     =     1
	Num. of threads =     1
	# Amps to Print =     10
	Print MP2 Amps? =     No
	Analyze T2 Amps =     No
	Print Pair Ener =     No
	Local CC        =     No
	SCS-MP2         =     False
	SCSN-MP2        =     False
	SCS-CCSD        =     False

	            Solving CC Amplitude Equations
	            ------------------------------
  Iter             Energy              RMS        T1Diag      D1Diag    New D1Diag
  ----     ---------------------    ---------   ----------  ----------  ----------
     0        -0.153680329590432    0.000e+00    0.000000    0.000000    0.000000
     1        -0.153665030928479    1.713e-02    0.005709    0.000000    0.000000
     2        -0.154319296055133    4.207e-03    0.006917    0.000000    0.000000
     3        -0.154396655539755    1.579e-03    0.007523    0.000000    0.000000
     4        -0.154388862267445    4.065e-04    0.007606    0.000000    0.000000
     5        -0.154389783972758    7.499e-05    0.007619    0.000000    0.000000
     6        -0.154389989781655    1.562e-05    0.007618    0.000000    0.000000
     7        -0.154389965019158    3.893e-06    0.007619    0.000000    0.000000
     8        -0.154389960908037    1.280e-06    0.007619    0.000000    0.000000
     9        -0.154389961158356    2.558e-07    0.007619    0.000000    0.000000
    10        -0.154389962681316    7.119e-08    0.007619    0.000000    0.000000

	Iterations converged.


	Largest TIA Amplitudes:
	          2   0        -0.0085528896
	          4  13        -0.0084681119
	          3  10        -0.0080629585
	          1   0         0.0046170757
	          4  17         0.0043086005
	          2   1         0.0042739914
	          4  14        -0.0041604656
	          2   2         0.0038566465
	          2   5        -0.0028039563
	          1   2         0.0025796690

	Largest Tia Amplitudes:
	          2   0        -0.0067364752
	          3  18         0.0056707352
	          1   5         0.0048750591
	          1   1         0.0039835288
	          3  14        -0.0036057671
	          2   1         0.0034706246
	          3  16         0.0031314156
	          2   4        -0.0026165940
	          2   3         0.0025312062
	          2   5        -0.0021020013

	Largest TIJAB Amplitudes:
	  3   2  10   2         0.0232051176
	  4   3  13  10        -0.0192601213
	  4   2  13   2         0.0186862021
	  4   3  15  10        -0.0178445241
	  4   2  14   2         0.0144661574
	  4   2  15   2         0.0130542369
	  3   2  10   1         0.0111933469
	  4   3  14  10        -0.0110676040
	  4   3   8   1        -0.0110013457
	  3   1  10   0         0.0106184619

	Largest Tijab Amplitudes:
	  3   2  14   2         0.0193532928
	  3   2  15   2         0.0152645950
	  3   2  16   2         0.0131425486
	  3   2  16   1         0.0094551655
	  2   1   2   0        -0.0092491490
	  3   2  18   2         0.0088073618
	  3   2  15   3         0.0087556255
	  3   1  14   0         0.0086285843
	  2   1  13  10        -0.0084862570
	  3   1  10   8         0.0084782225

	Largest TIjAb Amplitudes:
	  2   2   2   2        -0.0327121997
	  3   2  10   2         0.0279215715
	  4   3  13  14        -0.0253331283
	  4   3  14  15        -0.0246193133
	  3   3  10  14        -0.0217738592
	  3   3  10  16        -0.0207614168
	  4   3   1   1        -0.0206642138
	  4   3  15  16        -0.0200699120
	  4   2  13   2         0.0195384491
	  2   3   2  14         0.0192232889

	SCF energy       (chkpt)              =  -75.634062420797775
	Reference energy (file100)            =  -75.634062420797818

	Opposite-spin MP2 correlation energy  =    0.000000000000000
	Same-spin MP2 correlation energy      =    0.000000000000000
	MP2 correlation energy                =   -0.153680329590432
      * MP2 total energy                      =  -75.787742750388247
	CC2 correlation energy     =   -0.154389962681316
      * CC2 total energy           =  -75.788452383479139


*** tstop() called on lawn-143-215-105-45.lawn.gatech.edu at Thu Jan  5 14:06:37 2012
Module time:
	user time   =       0.30 seconds =       0.01 minutes
	system time =       0.20 seconds =       0.00 minutes
	total time  =          1 seconds =       0.02 minutes
Total time:
	user time   =       0.54 seconds =       0.01 minutes
	system time =       0.28 seconds =       0.00 minutes
	total time  =          1 seconds =       0.02 minutes

*** PSI4 exiting successfully. Buy a developer a beer!
