
    -----------------------------------------------------------------------
          Psi4: An Open-Source Ab Initio Electronic Structure Package
                               Psi4 1.1rc3.dev5 

                         Git: Rev {master} 3fbd859 


    R. M. Parrish, L. A. Burns, D. G. A. Smith, A. C. Simmonett,
    A. E. DePrince III, E. G. Hohenstein, U. Bozkaya, A. Yu. Sokolov,
    R. Di Remigio, R. M. Richard, J. F. Gonthier, A. M. James,
    H. R. McAlexander, A. Kumar, M. Saitow, X. Wang, B. P. Pritchard,
    P. Verma, H. F. Schaefer III, K. Patkowski, R. A. King, E. F. Valeev,
    F. A. Evangelista, J. M. Turney, T. D. Crawford, and C. D. Sherrill,
    J. Chem. Theory Comput. in press (2017).
    (doi: 10.1021/acs.jctc.7b00174)

    -----------------------------------------------------------------------


    Psi4 started on: Monday, 15 May 2017 03:35PM

    Process ID:  14047
    PSIDATADIR: /home/psilocaluser/gits/hrw-direct/objdir4/stage/usr/local/psi4/share/psi4
    Memory:     500.0 MiB
    Threads:    1
    
  ==> Input File <==

--------------------------------------------------------------------------
#! Internal match to psi4, test to match to literature values in litref.in/litref.out

molecule water {
0 1
O  -1.551007  -0.114520   0.000000
H  -1.934259   0.762503   0.000000
H  -0.599677   0.040712   0.000000
--
0 1
O   1.350625   0.111469   0.000000
H   1.680398  -0.373741  -0.758561
H   1.680398  -0.373741   0.758561
}
set basis aug-cc-pvdz

set reference rks
set scf_type out_of_core
set freeze_core true
set dft_radial_points 99
set dft_spherical_points 302

e_dhdft = energy('pbe0-2')
print_variables()
val = -152.648635492831                           #TEST
compare_values(val, e_dhdft, 6, "PBE0-2: Water")  #TEST

clean()

--------------------------------------------------------------------------

*** tstart() called on psinet
*** at Mon May 15 15:35:55 2017

   => Loading Basis Set <=

    Name: AUG-CC-PVDZ
    Role: ORBITAL
    Keyword: BASIS
    atoms 1, 4     entry O          line   243 file /home/psilocaluser/gits/hrw-direct/objdir4/stage/usr/local/psi4/share/psi4/basis/aug-cc-pvdz.gbs 
    atoms 2-3, 5-6 entry H          line    35 file /home/psilocaluser/gits/hrw-direct/objdir4/stage/usr/local/psi4/share/psi4/basis/aug-cc-pvdz.gbs 


         ---------------------------------------------------------
                                   SCF
            by Justin Turney, Rob Parrish, and Andy Simmonett
                              RKS Reference
                        1 Threads,    500 MiB Core
         ---------------------------------------------------------

  ==> Geometry <==

    Molecular point group: cs
    Full point group: Cs

    Geometry (in Angstrom), charge = 0, multiplicity = 1:

       Center              X                  Y                   Z               Mass       
    ------------   -----------------  -----------------  -----------------  -----------------
           O         -1.485163346097    -0.114724564047     0.000000000000    15.994914619560
           H         -1.868415346097     0.762298435953     0.000000000000     1.007825032070
           H         -0.533833346097     0.040507435953     0.000000000000     1.007825032070
           O          1.416468653903     0.111264435953     0.000000000000    15.994914619560
           H          1.746241653903    -0.373945564047    -0.758561000000     1.007825032070
           H          1.746241653903    -0.373945564047     0.758561000000     1.007825032070

  Running in cs symmetry.

  Rotational constants: A =      7.15151  B =      0.21457  C =      0.21447 [cm^-1]
  Rotational constants: A = 214396.91676  B =   6432.69056  C =   6429.61813 [MHz]
  Nuclear repulsion =   36.662847852755299

  Charge       = 0
  Multiplicity = 1
  Electrons    = 20
  Nalpha       = 10
  Nbeta        = 10

  ==> Algorithm <==

  SCF Algorithm Type is OUT_OF_CORE.
  DIIS enabled.
  MOM disabled.
  Fractional occupation disabled.
  Guess Type is SAD.
  Energy threshold   = 1.00e-06
  Density threshold  = 1.00e-06
  Integral threshold = 0.00e+00

  ==> Primary Basis <==

  Basis Set: AUG-CC-PVDZ
    Blend: AUG-CC-PVDZ
    Number of shells: 38
    Number of basis function: 82
    Number of Cartesian functions: 86
    Spherical Harmonics?: true
    Max angular momentum: 2

  ==> DFT Potential <==

   => PBE0-2 Composite Functional <= 

    PBE0-2 Double Hydrid Exchange-Correlation Functional

    J. Chai, Chem. Phys. Lett., 538, 121-125, 2012

    Points   =           5000
    Deriv    =              1
    GGA      =           TRUE
    Meta     =          FALSE

    X_LRC        =          FALSE
    X_Hybrid     =           TRUE
    X_Alpha      =   7.937010E-01
    X_Omega      =   0.000000E+00
    C_LRC        =          FALSE
    C_Hybrid     =           TRUE
    C_Alpha      =   5.000000E-01
    C_Omega      =   0.000000E+00

   => Exchange Functionals <=

    0.2063   PBE_X
    0.7937      HF 

   => Correlation Functionals <=

    0.5000   PBE_C
    0.5000     MP2 

   => Molecular Quadrature <=

    Radial Scheme    =       TREUTLER
    Pruning Scheme   =           FLAT
    Nuclear Scheme   =       TREUTLER

    BS radius alpha  =              1
    Pruning alpha    =              1
    Radial Points    =             99
    Spherical Points =            302
    Total Points     =         179388
    Total Blocks     =            171
    Max Points       =           4939
    Max Functions    =             82

  ==> Pre-Iterations <==

   -------------------------------------------------------
    Irrep   Nso     Nmo     Nalpha   Nbeta   Ndocc  Nsocc
   -------------------------------------------------------
     A'        55      55       0       0       0       0
     A"        27      27       0       0       0       0
   -------------------------------------------------------
    Total      82      82      10      10      10       0
   -------------------------------------------------------

  ==> Integral Setup <==

  ==> DiskJK: Disk-Based J/K Matrices <==

    J tasked:                  Yes
    K tasked:                  Yes
    wK tasked:                  No
    Memory (MB):               375
    Schwarz Cutoff:          1E-12

  Minimum eigenvalue in the overlap matrix is 1.5458174156E-03.
  Using Symmetric Orthogonalization.

  SCF Guess: Superposition of Atomic Densities via on-the-fly atomic UHF.

  ==> Iterations <==

                        Total Energy        Delta E     RMS |[F,P]|

   @RKS iter   0:  -152.34974584931601   -1.52350e+02   3.92547e-02 
   @RKS iter   1:  -152.33746031907359    1.22855e-02   6.94791e-03 
   @RKS iter   2:  -152.37834311435003   -4.08828e-02   4.94457e-03 DIIS
   @RKS iter   3:  -152.41091322321316   -3.25701e-02   4.72871e-04 DIIS
   @RKS iter   4:  -152.41144317421330   -5.29951e-04   1.11228e-04 DIIS
   @RKS iter   5:  -152.41149796084949   -5.47866e-05   4.18115e-05 DIIS
   @RKS iter   6:  -152.41150262730196   -4.66645e-06   1.80053e-05 DIIS
   @RKS iter   7:  -152.41150359640721   -9.69105e-07   2.26435e-06 DIIS
   @RKS iter   8:  -152.41150362763000   -3.12228e-08   4.06147e-07 DIIS

  ==> Post-Iterations <==

    Orbital Energies (a.u.)
    -----------------------

    Doubly Occupied:                                                      

       1Ap   -20.235327     2Ap   -20.178704     3Ap    -1.307201  
       4Ap    -1.250287     1App   -0.706051     5Ap    -0.657615  
       6Ap    -0.575319     7Ap    -0.520812     8Ap    -0.490006  
       2App   -0.440550  

    Virtual:                                                              

       9Ap     0.017263    10Ap     0.047525     3App    0.049210  
      11Ap     0.083587    12Ap     0.141476    13Ap     0.164480  
       4App    0.194523    14Ap     0.196131     5App    0.208034  
      15Ap     0.216073    16Ap     0.241705     6App    0.254449  
      17Ap     0.272960    18Ap     0.305991    19Ap     0.321924  
       7App    0.336056    20Ap     0.352137     8App    0.413470  
      21Ap     0.418389    22Ap     0.455525    23Ap     0.492447  
       9App    0.508293    10App    0.522311    24Ap     0.576653  
      25Ap     0.609494    11App    0.632888    26Ap     0.643612  
      27Ap     0.746706    12App    0.747145    28Ap     0.867345  
      29Ap     0.911663    30Ap     0.980595    13App    1.058953  
      31Ap     1.087576    14App    1.087895    32Ap     1.121815  
      33Ap     1.149197    15App    1.163366    34Ap     1.287810  
      35Ap     1.315234    16App    1.369700    36Ap     1.403352  
      37Ap     1.517260    17App    1.518725    38Ap     1.563086  
      18App    1.888332    39Ap     1.922966    19App    1.942424  
      40Ap     1.966670    20App    1.995909    41Ap     2.081993  
      21App    2.197095    42Ap     2.263893    22App    2.368742  
      43Ap     2.397235    44Ap     2.486748    45Ap     2.527284  
      23App    2.615269    46Ap     2.684667    47Ap     2.696324  
      48Ap     2.929116    49Ap     3.031820    24App    3.582891  
      50Ap     3.586127    25App    3.598724    51Ap     3.629998  
      26App    3.659939    52Ap     3.679876    53Ap     3.930515  
      54Ap     4.046209    27App    4.171285    55Ap     4.293655  

    Final Occupation by Irrep:
             Ap   App 
    DOCC [     8,    2 ]

  Energy converged.

  @RKS Final Energy:  -152.41150362763000

   => Energetics <=

    Nuclear Repulsion Energy =             36.6628478527552986
    One-Electron Energy =                -282.5741999714375652
    Two-Electron Energy =                  97.5122089899235647
    DFT Exchange-Correlation Energy =      -4.0123604988712822
    Empirical Dispersion Energy =           0.0000000000000000
    PCM Polarization Energy =               0.0000000000000000
    EFP Energy =                            0.0000000000000000
    Total Energy =                       -152.4115036276299975



Properties will be evaluated at   0.000000,   0.000000,   0.000000 Bohr

Properties computed using the SCF density matrix

  Nuclear Dipole Moment: (a.u.)
     X:     1.0217      Y:     0.0515      Z:     0.0000

  Electronic Dipole Moment: (a.u.)
     X:     0.0115      Y:    -0.0176      Z:     0.0000

  Dipole Moment: (a.u.)
     X:     1.0332      Y:     0.0338      Z:     0.0000     Total:     1.0338

  Dipole Moment: (Debye)
     X:     2.6261      Y:     0.0860      Z:     0.0000     Total:     2.6276


*** tstop() called on psinet at Mon May 15 15:36:11 2017
Module time:
	user time   =      15.49 seconds =       0.26 minutes
	system time =       0.23 seconds =       0.00 minutes
	total time  =         16 seconds =       0.27 minutes
Total time:
	user time   =      15.49 seconds =       0.26 minutes
	system time =       0.23 seconds =       0.00 minutes
	total time  =         16 seconds =       0.27 minutes

*** tstart() called on psinet
*** at Mon May 15 15:36:11 2017

   => Loading Basis Set <=

    Name: (AUG-CC-PVDZ AUX)
    Role: RIFIT
    Keyword: DF_BASIS_MP2
    atoms 1, 4     entry O          line   203 file /home/psilocaluser/gits/hrw-direct/objdir4/stage/usr/local/psi4/share/psi4/basis/aug-cc-pvdz-ri.gbs 
    atoms 2-3, 5-6 entry H          line    29 file /home/psilocaluser/gits/hrw-direct/objdir4/stage/usr/local/psi4/share/psi4/basis/aug-cc-pvdz-ri.gbs 

	 --------------------------------------------------------
	                          DF-MP2                         
	      2nd-Order Density-Fitted Moller-Plesset Theory     
	              RMP2 Wavefunction,   1 Threads             
	                                                         
	        Rob Parrish, Justin Turney, Andy Simmonett,      
	           Ed Hohenstein, and C. David Sherrill          
	 --------------------------------------------------------

   => Auxiliary Basis Set <=

  Basis Set: (AUG-CC-PVDZ AUX)
    Blend: AUG-CC-PVDZ-RI
    Number of shells: 80
    Number of basis function: 236
    Number of Cartesian functions: 272
    Spherical Harmonics?: true
    Max angular momentum: 3

	 --------------------------------------------------------
	                 NBF =    82, NAUX =   236
	 --------------------------------------------------------
	   CLASS    FOCC     OCC    AOCC    AVIR     VIR    FVIR
	   PAIRS       2      10       8      72      72       0
	 --------------------------------------------------------

	-----------------------------------------------------------
	 ==================> DF-MP2 Energies <==================== 
	-----------------------------------------------------------
	 Reference Energy          =    -152.4115036276299975 [Eh]
	 Singles Energy            =      -0.0000000001113598 [Eh]
	 Same-Spin Energy          =      -0.1217109747425455 [Eh]
	 Opposite-Spin Energy      =      -0.3525525935126082 [Eh]
	 Correlation Energy        =      -0.4742635683665135 [Eh]
	 Total Energy              =    -152.8857671959965217 [Eh]
	-----------------------------------------------------------
	 ================> DF-SCS-MP2 Energies <================== 
	-----------------------------------------------------------
	 SCS Same-Spin Scale       =       0.3333333333333333 [-]
	 SCS Opposite-Spin Scale   =       1.2000000000000000 [-]
	 SCS Same-Spin Energy      =      -0.0405703249141818 [Eh]
	 SCS Opposite-Spin Energy  =      -0.4230631122151298 [Eh]
	 SCS Correlation Energy    =      -0.4636334372406715 [Eh]
	 SCS Total Energy          =    -152.8751370648706711 [Eh]
	-----------------------------------------------------------



    PBE0-2 Energy Summary
    -------------------------
    DFT Reference Energy                  =  -152.4115036276299975
    Scaled MP2 Correlation                =    -0.2371317841832568
    @Final double-hybrid DFT total energy =  -152.6486354118132454


*** tstop() called on psinet at Mon May 15 15:36:12 2017
Module time:
	user time   =       0.26 seconds =       0.00 minutes
	system time =       0.00 seconds =       0.00 minutes
	total time  =          1 seconds =       0.02 minutes
Total time:
	user time   =      15.75 seconds =       0.26 minutes
	system time =       0.23 seconds =       0.00 minutes
	total time  =         17 seconds =       0.28 minutes


  Variable Map:
  ----------------------------------------------------------------------------
  "CURRENT CORRELATION ENERGY"           =>      -0.474263568367
  "CURRENT DIPOLE X"                     =>       2.626143241401
  "CURRENT DIPOLE Y"                     =>       0.085981681738
  "CURRENT DIPOLE Z"                     =>       0.000000000000
  "CURRENT ENERGY"                       =>    -152.648635411813
  "CURRENT REFERENCE ENERGY"             =>    -152.411503627630
  "DFT FUNCTIONAL TOTAL ENERGY"          =>    -152.411503627630
  "DFT TOTAL ENERGY"                     =>    -152.648635411813
  "DFT XC ENERGY"                        =>      -4.012360498871
  "DOUBLE-HYBRID CORRECTION ENERGY"      =>      -0.237131784183
  "MP2 CORRELATION ENERGY"               =>      -0.474263568367
  "MP2 OPPOSITE-SPIN CORRELATION ENERGY" =>      -0.352552593513
  "MP2 SAME-SPIN CORRELATION ENERGY"     =>      -0.121710974743
  "MP2 SINGLES ENERGY"                   =>      -0.000000000111
  "MP2 TOTAL ENERGY"                     =>    -152.885767195997
  "NUCLEAR REPULSION ENERGY"             =>      36.662847852755
  "ONE-ELECTRON ENERGY"                  =>    -282.574199971438
  "PCM POLARIZATION ENERGY"              =>       0.000000000000
  "SCF DIPOLE X"                         =>       2.626143241401
  "SCF DIPOLE Y"                         =>       0.085981681738
  "SCF DIPOLE Z"                         =>       0.000000000000
  "SCF ITERATION ENERGY"                 =>    -152.411503627630
  "SCF ITERATIONS"                       =>       8.000000000000
  "SCF TOTAL ENERGY"                     =>    -152.411503627630
  "SCS-MP2 CORRELATION ENERGY"           =>      -0.463633437241
  "SCS-MP2 TOTAL ENERGY"                 =>    -152.875137064871
  "TWO-ELECTRON ENERGY"                  =>      97.512208989924


	PBE0-2: Water.....................................................PASSED

*** Psi4 exiting successfully. Buy a developer a beer!
