    -----------------------------------------------------------------------
          PSI4: An Open-Source Ab Initio Electronic Structure Package
                              PSI 4.0.0-beta2+ Driver

               Git: Rev 90242fffbb26f67d308d4eda80670ae1909d397f

    J. M. Turney, A. C. Simmonett, R. M. Parrish, E. G. Hohenstein,
    F. A. Evangelista, J. T. Fermann, B. J. Mintz, L. A. Burns, J. J. Wilke,
    M. L. Abrams, N. J. Russ, M. L. Leininger, C. L. Janssen, E. T. Seidl,
    W. D. Allen, H. F. Schaefer, R. A. King, E. F. Valeev, C. D. Sherrill,
    and T. D. Crawford, WIREs Comput. Mol. Sci., (2011) (doi: 10.1002/wcms.93)

                         Additional Contributions by
    A. E. DePrince, M. Saitow, U. Bozkaya, A. Yu. Sokolov
    -----------------------------------------------------------------------

    Process ID:  17993
    PSI4DATADIR: /theoryfs2/ds/cook/psi4_23JULY2012/lib

    Using LocalCommunicator (Number of processes = 1)

    Memory level set to 256.000 MB

  ==> Input File <==

--------------------------------------------------------------------------
# Matches to lit values , put that here

molecule water {
0 1
O  -1.551007  -0.114520   0.000000
H  -1.934259   0.762503   0.000000
H  -0.599677   0.040712   0.000000
--
0 1
O   1.350625   0.111469   0.000000
H   1.680398  -0.373741  -0.758561
H   1.680398  -0.373741   0.758561
}
set basis aug-cc-pvdz

set reference rks
set scf_type out_of_core
set freeze_core true

e_dhdft = energy('pbe0-2')
print_variables()
val = -152.648635492831
compare_values(val, e_dhdft, 8, "PBE0-2: Water")

clean()

--------------------------------------------------------------------------

*** tstart() called on ds5
*** at Thu Aug  9 14:17:07 2012


         ---------------------------------------------------------
                                   SCF
            by Justin Turney, Rob Parrish, and Andy Simmonett
                              RKS Reference
                        4 Threads,    256 MiB Core
         ---------------------------------------------------------

  ==> Geometry <==

    Molecular point group: cs
    Full point group: Cs

    Geometry (in Angstrom), charge = 0, multiplicity = 1:

       Center              X                  Y                   Z       
    ------------   -----------------  -----------------  -----------------
           O         -1.485163346097    -0.114724564047     0.000000000000
           H         -1.868415346097     0.762298435953     0.000000000000
           H         -0.533833346097     0.040507435953     0.000000000000
           O          1.416468653903     0.111264435953     0.000000000000
           H          1.746241653903    -0.373945564047    -0.758561000000
           H          1.746241653903    -0.373945564047     0.758561000000

  Running in cs symmetry.

  Nuclear repulsion =   36.662847852755299

  Charge       = 0
  Multiplicity = 1
  Electrons    = 20
  Nalpha       = 10
  Nbeta        = 10

  ==> Algorithm <==

  SCF Algorithm Type is OUT_OF_CORE.
  DIIS enabled.
  MOM disabled.
  Fractional occupation disabled.
  Guess Type is CORE.
  Energy threshold   = 1.00e-08
  Density threshold  = 1.00e-08
  Integral threshold = 0.00e+00

  ==> Primary Basis <==

  Basis Set: AUG-CC-PVDZ
    Number of shells: 38
    Number of basis function: 82
    Number of Cartesian functions: 86
    Spherical Harmonics?: true
    Max angular momentum: 2

  ==> DFT Potential <==

   => PBE0-2 Composite Functional <= 

    PBE0-2 Double Hydrid Exchange-Correlation Functional

    J. Chai, Chem. Phys. Lett., 538, 121-125, 2012

    Points   =           5000
    Deriv    =              1
    GGA      =           TRUE
    Meta     =          FALSE

    X_LRC        =          FALSE
    X_Hybrid     =           TRUE
    X_Alpha      =   7.937010E-01
    X_Omega      =   0.000000E+00
    C_LRC        =          FALSE
    C_Hybrid     =           TRUE
    C_SCS_Hybrid =          FALSE
    C_Alpha      =   5.000000E-01
    C_SS_Alpha   =   0.000000E+00
    C_OS_Alpha   =   0.000000E+00

   => Exchange Functionals <=

    0.2063 PBE_X
    0.7937    HF 

   => Correlation Functionals <=

    0.5000 PBE_C
    0.5000 DF-MP2 

   => Molecular Quadrature <=

    Spherical Scheme = Lebedev-Laikov
    Radial Scheme    =       Treutler
    Atomic Scheme    =       Treutler

    Spherical Points =            302
    Radial Points    =             99
    Total Points     =         179187
    Total Blocks     =            293
    Max Points       =           1000
    Max Functions    =             82

  ==> Pre-Iterations <==

   -------------------------------------------------------
    Irrep   Nso     Nmo     Nalpha   Nbeta   Ndocc  Nsocc
   -------------------------------------------------------
     A'        55      55       0       0       0       0
     A"        27      27       0       0       0       0
   -------------------------------------------------------
    Total      82      82      10      10      10       0
   -------------------------------------------------------

  ==> Integral Setup <==

 MINTS: Wrapper to libmints.
   by Justin Turney

   Calculation information:
      Number of atoms:                   6
      Number of AO shells:              38
      Number of SO shells:              33
      Number of primitives:             78
      Number of atomic orbitals:        86
      Number of basis functions:        82

      Number of irreps:                  2
      Number of functions per irrep: [  55   27 ]

      Overlap, kinetic, potential, dipole, and quadrupole integrals
        stored in file 35.

      Computing two-electron integrals...done
      Computed 2898501 non-zero two-electron integrals.
        Stored in file 33.

  Minimum eigenvalue in the overlap matrix is 1.5458174156E-03.
  Using Symmetric Orthogonalization.
  SCF Guess: Core (One-Electron) Hamiltonian.

  Initial RKS energy:  -117.30188909956064

  ==> Iterations <==

                        Total Energy        Delta E     Density RMS

   @RKS iter   1:  -137.28557013583406   -1.99837e+01   0.00000e+00 
   @RKS iter   2:  -130.07910544022718    7.20646e+00   1.00974e+00 DIIS
   @RKS iter   3:  -150.86762940875280   -2.07885e+01   1.00990e+00 DIIS
   @RKS iter   4:  -152.12144893164196   -1.25382e+00   8.82157e-03 DIIS
   @RKS iter   5:  -152.40024174258423   -2.78793e-01   7.15223e-03 DIIS
   @RKS iter   6:  -152.40982237818045   -9.58064e-03   1.81615e-03 DIIS
   @RKS iter   7:  -152.41136812932263   -1.54575e-03   4.06231e-04 DIIS
   @RKS iter   8:  -152.41149743699549   -1.29308e-04   1.20332e-04 DIIS
   @RKS iter   9:  -152.41150354007797   -6.10308e-06   3.65492e-05 DIIS
   @RKS iter  10:  -152.41150362528600   -8.52080e-08   5.55855e-06 DIIS
   @RKS iter  11:  -152.41150362840159   -3.11559e-09   9.86119e-07 DIIS
   @RKS iter  12:  -152.41150362860193   -2.00345e-10   2.65612e-07 DIIS
   @RKS iter  13:  -152.41150362860603   -4.09273e-12   3.54822e-08 DIIS

  ==> Post-Iterations <==

	Orbital Energies (a.u.)
	-----------------------

	Doubly Occupied:                                                      

	   1A'   -20.235328     2A'   -20.178706     3A'    -1.307201  
	   4A'    -1.250288     1A"    -0.706051     5A'    -0.657617  
	   6A'    -0.575319     7A'    -0.520813     8A'    -0.490006  
	   2A"    -0.440550  

	Virtual:                                                              

	   9A'     0.017263    10A'     0.047526     3A"     0.049210  
	  11A'     0.083587    12A'     0.141476    13A'     0.164480  
	   4A"     0.194523    14A'     0.196131     5A"     0.208034  
	  15A'     0.216073    16A'     0.241705     6A"     0.254449  
	  17A'     0.272960    18A'     0.305991    19A'     0.321924  
	   7A"     0.336055    20A'     0.352137     8A"     0.413470  
	  21A'     0.418388    22A'     0.455525    23A'     0.492446  
	   9A"     0.508293    10A"     0.522310    24A'     0.576653  
	  25A'     0.609494    11A"     0.632888    26A'     0.643612  
	  27A'     0.746705    12A"     0.747145    28A'     0.867345  
	  29A'     0.911663    30A'     0.980593    13A"     1.058952  
	  31A'     1.087575    14A"     1.087895    32A'     1.121814  
	  33A'     1.149197    15A"     1.163366    34A'     1.287810  
	  35A'     1.315233    16A"     1.369700    36A'     1.403351  
	  37A'     1.517259    17A"     1.518724    38A'     1.563085  
	  18A"     1.888331    39A'     1.922965    19A"     1.942423  
	  40A'     1.966669    20A"     1.995909    41A'     2.081993  
	  21A"     2.197094    42A'     2.263893    22A"     2.368742  
	  43A'     2.397234    44A'     2.486748    45A'     2.527284  
	  23A"     2.615269    46A'     2.684666    47A'     2.696322  
	  48A'     2.929114    49A'     3.031820    24A"     3.582891  
	  50A'     3.586127    25A"     3.598723    51A'     3.629997  
	  26A"     3.659938    52A'     3.679875    53A'     3.930515  
	  54A'     4.046209    27A"     4.171285    55A'     4.293653  

	Final Occupation by Irrep:
	         A'    A" 
	DOCC [     8,    2 ]

  Energy converged.

  @RKS Final Energy:  -152.41150362860603

   => Energetics <=

    Nuclear Repulsion Energy =         36.6628478527552986
    One-Electron Energy =            -282.5741910021962440
    Two-Electron Energy =              97.5121996772718092
    DFT Functional Energy =            -4.0123601564369089
    Empirical Dispersion Energy =       0.0000000000000000
    Total Energy =                   -152.4115036286060274

  ==> Properties <==

  Nuclear Dipole Moment: (a.u.)
     X:     1.0217      Y:     0.0515      Z:     0.0000

  Electronic Dipole Moment: (a.u.)
     X:     0.0115      Y:    -0.0176      Z:     0.0000

  Dipole Moment: (a.u.)
     X:     1.0332      Y:     0.0338      Z:     0.0000     Total:     1.0338

  Dipole Moment: (Debye)
     X:     2.6261      Y:     0.0860      Z:     0.0000     Total:     2.6275


  Saving occupied orbitals to File 180.

*** tstop() called on ds5 at Thu Aug  9 14:17:42 2012
Module time:
	user time   =      97.83 seconds =       1.63 minutes
	system time =       3.27 seconds =       0.05 minutes
	total time  =         35 seconds =       0.58 minutes
Total time:
	user time   =      97.83 seconds =       1.63 minutes
	system time =       3.27 seconds =       0.05 minutes
	total time  =         35 seconds =       0.58 minutes
No DF_BASIS_MP2 auxiliary basis selected, defaulting to aug-cc-pvdz-ri

*** tstart() called on ds5
*** at Thu Aug  9 14:17:43 2012

	 --------------------------------------------------------
	                          DF-MP2                         
	      2nd-Order Density-Fitted Moller-Plesset Theory     
	              RMP2 Wavefunction,   4 Threads             
	                                                         
	        Rob Parrish, Justin Turney, Andy Simmonett,      
	           Ed Hohenstein, and C. David Sherrill          
	 --------------------------------------------------------

   => Auxiliary Basis Set <=

  Basis Set: aug-cc-pvdz-ri
    Number of shells: 80
    Number of basis function: 236
    Number of Cartesian functions: 272
    Spherical Harmonics?: true
    Max angular momentum: 3

	 --------------------------------------------------------
	                 NBF =    82, NAUX =   236
	 --------------------------------------------------------
	   CLASS    FOCC     OCC    AOCC    AVIR     VIR    FVIR
	   PAIRS       2      10       8      72      72       0
	 --------------------------------------------------------

	----------------------------------------------------------
	 ====================> MP2 Energies <==================== 
	----------------------------------------------------------
	 Reference Energy          =    -152.4115036286060274 [H]
	 Singles Energy            =      -0.0000000000000095 [H]
	 Same-Spin Energy          =      -0.1217110434586361 [H]
	 Opposite-Spin Energy      =      -0.3525526849913543 [H]
	 Correlation Energy        =      -0.4742637284500000 [H]
	 Total Energy              =    -152.8857673570560394 [H]
	----------------------------------------------------------
	 ==================> SCS-MP2 Energies <================== 
	----------------------------------------------------------
	 SCS Same-Spin Scale       =       0.3333333333333333 [-]
	 SCS Opposite-Spin Scale   =       1.2000000000000000 [-]
	 SCS Same-Spin Energy      =      -0.0405703478195454 [H]
	 SCS Opposite-Spin Energy  =      -0.4230632219896252 [H]
	 SCS Correlation Energy    =      -0.4636335698091801 [H]
	 SCS Total Energy          =    -152.8751371984152172 [H]
	----------------------------------------------------------


*** tstop() called on ds5 at Thu Aug  9 14:17:44 2012
Module time:
	user time   =       2.08 seconds =       0.03 minutes
	system time =       0.09 seconds =       0.00 minutes
	total time  =          1 seconds =       0.02 minutes
Total time:
	user time   =      99.96 seconds =       1.67 minutes
	system time =       3.37 seconds =       0.06 minutes
	total time  =         37 seconds =       0.62 minutes


  Variable Map:
  ----------------------------------------------------------------------------
  "CURRENT CORRELATION ENERGY"    =>      -0.474263728450
  "CURRENT ENERGY"                =>    -152.648635492831
  "CURRENT REFERENCE ENERGY"      =>    -152.411503628606
  "DF-MP2 CORRELATION ENERGY"     =>      -0.474263728450
  "DF-MP2 OPPOSITE-SPIN ENERGY"   =>      -0.352552684991
  "DF-MP2 SAME-SPIN ENERGY"       =>      -0.121711043459
  "DF-MP2 SINGLES ENERGY"         =>      -0.000000000000
  "DF-MP2 TOTAL ENERGY"           =>    -152.885767357056
  "DFT FUNCTIONAL ENERGY"         =>      -4.012360156437
  "DFT FUNCTIONAL TOTAL ENERGY"   =>    -152.411503628606
  "DFT TOTAL ENERGY"              =>    -152.648635492831
  "NUCLEAR REPULSION ENERGY"      =>      36.662847852755
  "ONE-ELECTRON ENERGY"           =>    -282.574191002196
  "SCF DIPOLE X"                  =>       2.626134015041
  "SCF DIPOLE Y"                  =>       0.085972483911
  "SCF DIPOLE Z"                  =>       0.000000000000
  "SCF ITERATION ENERGY"          =>    -152.411503628606
  "SCF TOTAL ENERGY"              =>    -152.411503628606
  "SCS-DF-MP2 CORRELATION ENERGY" =>      -0.463633569809
  "SCS-DF-MP2 TOTAL ENERGY"       =>    -152.875137198415
  "TWO-ELECTRON ENERGY"           =>      97.512199677272



*** PSI4 exiting successfully. Buy a developer a beer!
