    -----------------------------------------------------------------------
          Psi4: An Open-Source Ab Initio Electronic Structure Package
                              Psi4 0.1.189 Driver

                          Git: Rev {master} eb54861 

    J. M. Turney, A. C. Simmonett, R. M. Parrish, E. G. Hohenstein,
    F. A. Evangelista, J. T. Fermann, B. J. Mintz, L. A. Burns, J. J. Wilke,
    M. L. Abrams, N. J. Russ, M. L. Leininger, C. L. Janssen, E. T. Seidl,
    W. D. Allen, H. F. Schaefer, R. A. King, E. F. Valeev, C. D. Sherrill,
    and T. D. Crawford, WIREs Comput. Mol. Sci. 2, 556-565 (2012)
    (doi: 10.1002/wcms.93)

                         Additional Contributions by
    A. E. DePrince, M. Saitow, U. Bozkaya, A. Yu. Sokolov
    -----------------------------------------------------------------------


    Psi4 started on: 06-06-2015  01:12:57 PM EDT

    Process ID:  26869
    PSI4DATADIR: /theoryfs2/ds/sherrill/psi4-private/lib
    Memory level set to 256.000 MB

  ==> Input File <==

--------------------------------------------------------------------------
#! Benzene Dimer Out-of-Core HF/cc-pVDZ

refnuc = 618.289643086473006 #TEST
refscf = -461.44029760966623 #TEST

molecule bz2 {
    X
    X   1  RXX
    X   2  RXX  1  90.0
    C   3  RCC  2  90.0  1   0.0
    C   3  RCC  2  90.0  1  60.0
    C   3  RCC  2  90.0  1 120.0
    C   3  RCC  2  90.0  1 180.0
    C   3  RCC  2  90.0  1 240.0
    C   3  RCC  2  90.0  1 300.0
    H   3  RCH  2  90.0  1   0.0
    H   3  RCH  2  90.0  1  60.0
    H   3  RCH  2  90.0  1 120.0
    H   3  RCH  2  90.0  1 180.0
    H   3  RCH  2  90.0  1 240.0
    H   3  RCH  2  90.0  1 300.0
    X   3  RXX  2  90.0  1   0.0
    X   3  D   16  90.0  2 180.0
    X   3  DRXX 16 90.0  2 180.0
    X  18  RXX 17  90.0 16   0.0
    C  17  RCC 18  90.0 19   0.0
    C  17  RCC 18  90.0 19  60.0
    C  17  RCC 18  90.0 19 120.0
    C  17  RCC 18  90.0 19 180.0
    C  17  RCC 18  90.0 19 240.0
    C  17  RCC 18  90.0 19 300.0
    H  17  RCH 18  90.0 19   0.0
    H  17  RCH 18  90.0 19  60.0
    H  17  RCH 18  90.0 19 120.0
    H  17  RCH 18  90.0 19 180.0
    H  17  RCH 18  90.0 19 240.0
    H  17  RCH 18  90.0 19 300.0

    RCC  = 1.3915
    RCH  = 2.4715
    RXX  = 1.00
    D    = 3.9 
    DRXX = 4.90

}

memory 500 mb

set globals {
  basis cc-pVDZ
  guess sad
  scf_type out_of_core
  print 2
}

thisenergy = energy('scf')

compare_values(refnuc, bz2.nuclear_repulsion_energy(), 5, "Nuclear repulsion energy")       #TEST 
compare_values(refscf, get_variable("SCF TOTAL ENERGY"),     8, "SCF energy") #TEST
--------------------------------------------------------------------------

  Memory set to 500.000 MiB by Python script.

*** tstart() called on ds9.sherrill.chemistry.gatech.edu
*** at Sat Jun  6 13:12:57 2015

   => Loading Basis Set <=

    Role: BASIS
    Keyword: BASIS
    Name: CC-PVDZ
    atoms 1-6, 13-18  entry C          line   130 file /theoryfs2/ds/sherrill/psi4-private/lib/basis/cc-pvdz.gbs
    atoms 7-12, 19-24 entry H          line    20 file /theoryfs2/ds/sherrill/psi4-private/lib/basis/cc-pvdz.gbs

    There are an even number of electrons - assuming singlet.
    Specify the multiplicity with the MULTP option in the
    input if this is incorrect


         ---------------------------------------------------------
                                   SCF
            by Justin Turney, Rob Parrish, and Andy Simmonett
                              RHF Reference
                        1 Threads,    500 MiB Core
         ---------------------------------------------------------

  ==> Geometry <==

    Molecular point group: d2h
    Full point group: D6h

    Geometry (in Angstrom), charge = 0, multiplicity = 1:

       Center              X                  Y                   Z       
    ------------   -----------------  -----------------  -----------------
           C         -0.000000000000     1.950000000000    -1.391500000000
           C          1.205074349366     1.950000000000    -0.695750000000
           C          1.205074349366     1.950000000000     0.695750000000
           C         -0.000000000000     1.950000000000     1.391500000000
           C         -1.205074349366     1.950000000000     0.695750000000
           C         -1.205074349366     1.950000000000    -0.695750000000
           H         -0.000000000000     1.950000000000    -2.471500000000
           H          2.140381785453     1.950000000000    -1.235750000000
           H          2.140381785453     1.950000000000     1.235750000000
           H         -0.000000000000     1.950000000000     2.471500000000
           H         -2.140381785453     1.950000000000     1.235750000000
           H         -2.140381785453     1.950000000000    -1.235750000000
           C          0.000000000000    -1.950000000000    -1.391500000000
           C         -1.205074349366    -1.950000000000    -0.695750000000
           C         -1.205074349366    -1.950000000000     0.695750000000
           C          0.000000000000    -1.950000000000     1.391500000000
           C          1.205074349366    -1.950000000000     0.695750000000
           C          1.205074349366    -1.950000000000    -0.695750000000
           H          0.000000000000    -1.950000000000    -2.471500000000
           H         -2.140381785453    -1.950000000000    -1.235750000000
           H         -2.140381785453    -1.950000000000     1.235750000000
           H          0.000000000000    -1.950000000000     2.471500000000
           H          2.140381785453    -1.950000000000     1.235750000000
           H          2.140381785453    -1.950000000000    -1.235750000000

  Running in d2h symmetry.

  Rotational constants: A =      0.04780  B =      0.02190  C =      0.02190 [cm^-1]
  Rotational constants: A =   1432.90044  B =    656.42561  C =    656.42561 [MHz]
  Nuclear repulsion =  618.289643086473006

  Charge       = 0
  Multiplicity = 1
  Electrons    = 84
  Nalpha       = 42
  Nbeta        = 42

  ==> Algorithm <==

  SCF Algorithm Type is OUT_OF_CORE.
  DIIS enabled.
  MOM disabled.
  Fractional occupation disabled.
  Guess Type is SAD.
  Energy threshold   = 1.00e-06
  Density threshold  = 1.00e-06
  Integral threshold = 0.00e+00

  ==> Primary Basis <==

  -AO BASIS SET INFORMATION:
    Name                   = CC-PVDZ
    Total number of shells = 108
    Number of primitives   = 324
    Number of AO           = 240
    Number of SO           = 228
    Maximum AM             = 2
    Spherical Harmonics    = TRUE

  -Contraction Scheme:
    Atom   Type   All Primitives // Shells:
   ------ ------ --------------------------
       1     C     17s 4p 1d // 3s 2p 1d 
       2     C     17s 4p 1d // 3s 2p 1d 
       3     C     17s 4p 1d // 3s 2p 1d 
       4     C     17s 4p 1d // 3s 2p 1d 
       5     C     17s 4p 1d // 3s 2p 1d 
       6     C     17s 4p 1d // 3s 2p 1d 
       7     H     4s 1p // 2s 1p 
       8     H     4s 1p // 2s 1p 
       9     H     4s 1p // 2s 1p 
      10     H     4s 1p // 2s 1p 
      11     H     4s 1p // 2s 1p 
      12     H     4s 1p // 2s 1p 
      13     C     17s 4p 1d // 3s 2p 1d 
      14     C     17s 4p 1d // 3s 2p 1d 
      15     C     17s 4p 1d // 3s 2p 1d 
      16     C     17s 4p 1d // 3s 2p 1d 
      17     C     17s 4p 1d // 3s 2p 1d 
      18     C     17s 4p 1d // 3s 2p 1d 
      19     H     4s 1p // 2s 1p 
      20     H     4s 1p // 2s 1p 
      21     H     4s 1p // 2s 1p 
      22     H     4s 1p // 2s 1p 
      23     H     4s 1p // 2s 1p 
      24     H     4s 1p // 2s 1p 

  ==> Pre-Iterations <==

   -------------------------------------------------------
    Irrep   Nso     Nmo     Nalpha   Nbeta   Ndocc  Nsocc
   -------------------------------------------------------
     Ag        33      33       0       0       0       0
     B1g       24      24       0       0       0       0
     B2g       24      24       0       0       0       0
     B3g       33      33       0       0       0       0
     Au        24      24       0       0       0       0
     B1u       33      33       0       0       0       0
     B2u       33      33       0       0       0       0
     B3u       24      24       0       0       0       0
   -------------------------------------------------------
    Total     228     228      42      42      42       0
   -------------------------------------------------------

  Starting with a DF guess...

   => Loading Basis Set <=

    Role: BASIS
    Keyword: BASIS
    Name: CC-PVDZ
    atoms 1-6, 13-18  entry C          line   130 file /theoryfs2/ds/sherrill/psi4-private/lib/basis/cc-pvdz.gbs
    atoms 7-12, 19-24 entry H          line    20 file /theoryfs2/ds/sherrill/psi4-private/lib/basis/cc-pvdz.gbs

 OEINTS: Overlap, kinetic, potential, dipole, and quadrupole integrals
         stored in file 35.

  ==> Integral Setup <==

   => Loading Basis Set <=

    Role: BASIS
    Keyword: BASIS
    Name: CC-PVDZ
    atoms 1-6, 13-18  entry C          line   130 file /theoryfs2/ds/sherrill/psi4-private/lib/basis/cc-pvdz.gbs
    atoms 7-12, 19-24 entry H          line    20 file /theoryfs2/ds/sherrill/psi4-private/lib/basis/cc-pvdz.gbs

   => Loading Basis Set <=

    Role: JKFIT
    Keyword: DF_BASIS_SCF
    Name: 
    atoms 1-6, 13-18  entry C          line   120 file /theoryfs2/ds/sherrill/psi4-private/lib/basis/cc-pvdz-jkfit.gbs
    atoms 7-12, 19-24 entry H          line    50 file /theoryfs2/ds/sherrill/psi4-private/lib/basis/cc-pvdz-jkfit.gbs

  ==> DFJK: Density-Fitted J/K Matrices <==

    J tasked:                  Yes
    K tasked:                  Yes
    wK tasked:                  No
    OpenMP threads:              1
    Integrals threads:           1
    Memory (MB):               357
    Algorithm:                Core
    Integral Cache:           NONE
    Schwarz Cutoff:          1E-12
    Fitting Condition:       1E-12

   => Auxiliary Basis Set <=

  -AO BASIS SET INFORMATION:
    Name                   = 
    Total number of shells = 396
    Number of primitives   = 396
    Number of AO           = 1272
    Number of SO           = 1116
    Maximum AM             = 3
    Spherical Harmonics    = TRUE

  -Contraction Scheme:
    Atom   Type   All Primitives // Shells:
   ------ ------ --------------------------
       1     C     10s 7p 5d 2f // 10s 7p 5d 2f 
       2     C     10s 7p 5d 2f // 10s 7p 5d 2f 
       3     C     10s 7p 5d 2f // 10s 7p 5d 2f 
       4     C     10s 7p 5d 2f // 10s 7p 5d 2f 
       5     C     10s 7p 5d 2f // 10s 7p 5d 2f 
       6     C     10s 7p 5d 2f // 10s 7p 5d 2f 
       7     H     4s 3p 2d // 4s 3p 2d 
       8     H     4s 3p 2d // 4s 3p 2d 
       9     H     4s 3p 2d // 4s 3p 2d 
      10     H     4s 3p 2d // 4s 3p 2d 
      11     H     4s 3p 2d // 4s 3p 2d 
      12     H     4s 3p 2d // 4s 3p 2d 
      13     C     10s 7p 5d 2f // 10s 7p 5d 2f 
      14     C     10s 7p 5d 2f // 10s 7p 5d 2f 
      15     C     10s 7p 5d 2f // 10s 7p 5d 2f 
      16     C     10s 7p 5d 2f // 10s 7p 5d 2f 
      17     C     10s 7p 5d 2f // 10s 7p 5d 2f 
      18     C     10s 7p 5d 2f // 10s 7p 5d 2f 
      19     H     4s 3p 2d // 4s 3p 2d 
      20     H     4s 3p 2d // 4s 3p 2d 
      21     H     4s 3p 2d // 4s 3p 2d 
      22     H     4s 3p 2d // 4s 3p 2d 
      23     H     4s 3p 2d // 4s 3p 2d 
      24     H     4s 3p 2d // 4s 3p 2d 

  Minimum eigenvalue in the overlap matrix is 3.1466917847E-04.
  Using Symmetric Orthogonalization.
  SCF Guess: Superposition of Atomic Densities via on-the-fly atomic UHF.

  ==> Iterations <==

                           Total Energy        Delta E     RMS |[F,P]|

   @DF-RHF iter   0:  -465.48033270674841   -4.65480e+02   7.61917e-02 
   @DF-RHF iter   1:  -461.17488073404706    4.30545e+00   6.99700e-03 
   @DF-RHF iter   2:  -461.41518652883929   -2.40306e-01   2.06870e-03 DIIS
   @DF-RHF iter   3:  -461.43643721200556   -2.12507e-02   8.39508e-04 DIIS
   @DF-RHF iter   4:  -461.43935590145520   -2.91869e-03   1.15533e-04 DIIS
   @DF-RHF iter   5:  -461.43942975917457   -7.38577e-05   2.48566e-05 DIIS
   @DF-RHF iter   6:  -461.43943330159004   -3.54242e-06   9.21450e-06 DIIS
   @DF-RHF iter   7:  -461.43943374877290   -4.47183e-07   1.42859e-06 DIIS
   @DF-RHF iter   8:  -461.43943376439915   -1.56263e-08   4.63301e-07 DIIS

  DF guess converged.

  ==> Integral Setup <==

   => Loading Basis Set <=

    Role: BASIS
    Keyword: BASIS
    Name: CC-PVDZ
    atoms 1-6, 13-18  entry C          line   130 file /theoryfs2/ds/sherrill/psi4-private/lib/basis/cc-pvdz.gbs
    atoms 7-12, 19-24 entry H          line    20 file /theoryfs2/ds/sherrill/psi4-private/lib/basis/cc-pvdz.gbs

   => Loading Basis Set <=

    Role: BASIS
    Keyword: BASIS
    Name: CC-PVDZ
    atoms 1-6, 13-18  entry C          line   130 file /theoryfs2/ds/sherrill/psi4-private/lib/basis/cc-pvdz.gbs
    atoms 7-12, 19-24 entry H          line    20 file /theoryfs2/ds/sherrill/psi4-private/lib/basis/cc-pvdz.gbs

 MINTS: Wrapper to libmints.
   by Justin Turney

   Calculation information:
      Number of atoms:                  24
      Number of AO shells:             108
      Number of SO shells:              18
      Number of primitives:            324
      Number of atomic orbitals:       240
      Number of basis functions:       228

      Number of irreps:                  8
      Integral cutoff                 0.00e+00
      Number of functions per irrep: [  33   24   24   33   24   33   33   24 ]

 OEINTS: Overlap, kinetic, potential, dipole, and quadrupole integrals
         stored in file 35.

      Computing two-electron integrals...done
      Computed 42649419 non-zero two-electron integrals.
        Stored in file 33.

  ==> DiskJK: Disk-Based J/K Matrices <==

    J tasked:                  Yes
    K tasked:                  Yes
    wK tasked:                  No
    Memory (MB):               357
    Schwarz Cutoff:          1E-12

   @RHF iter   9:  -461.44029714576618   -8.63381e-04   1.14842e-05 DIIS
   @RHF iter  10:  -461.44029757715748   -4.31391e-07   2.72772e-06 DIIS
   @RHF iter  11:  -461.44029760184139   -2.46839e-08   1.11185e-06 DIIS
   @RHF iter  12:  -461.44029760638796   -4.54656e-09   1.27160e-07 DIIS

  ==> Post-Iterations <==

    Orbital Energies (a.u.)
    -----------------------

    Doubly Occupied:                                                      

       1B2u  -11.231348     1Ag   -11.231341     1B3g  -11.230784  
       1B1g  -11.230784     1B1u  -11.230778     1B3u  -11.230778  
       2B2u  -11.229569     1Au   -11.229569     2Ag   -11.229566  
       1B2g  -11.229566     2B3g  -11.228977     2B1u  -11.228976  
       3Ag    -1.144455     3B2u   -1.142754     3B1u   -1.008697  
       2B3u   -1.008697     3B3g   -1.007176     2B1g   -1.007176  
       2B2g   -0.817323     4Ag    -0.817323     2Au    -0.816025  
       4B2u   -0.816025     5Ag    -0.702374     5B2u   -0.700857  
       4B1u   -0.637068     4B3g   -0.635602     3B3u   -0.610391  
       3B1g   -0.609807     5B1u   -0.580385     4B3u   -0.580385  
       5B3g   -0.579088     4B1g   -0.579088     6Ag    -0.504499  
       3B2g   -0.486057     7Ag    -0.486057     3Au    -0.485076  
       6B2u   -0.485076     7B2u   -0.481708     5B3u   -0.338027  
       6B1u   -0.338027     5B1g   -0.316378     6B3g   -0.316378  

    Virtual:                                                              

       4B2g    0.131203     8Ag     0.131203     4Au     0.157549  
       8B2u    0.157549     9Ag     0.172490     9B2u    0.201764  
       6B3u    0.207435     7B1u    0.207435     6B1g    0.241506  
       7B3g    0.241506     5B2g    0.244844    10Ag     0.244844  
       8B1u    0.261404     5Au     0.276622    10B2u    0.276622  
       8B3g    0.290911     9B1u    0.345339     9B3g    0.374274  
      11Ag     0.437180     6B2g    0.437180    11B2u    0.450317  
       6Au     0.450317    10B1u    0.470396     7B3u    0.470396  
      10B3g    0.481796     7B1g    0.481796    12Ag     0.559455  
       8B3u    0.577790     8B1g    0.601891    12B2u    0.608376  
      13Ag     0.614028    11B1u    0.652277     9B3u    0.652277  
      12B1u    0.672959    11B3g    0.693097    13B2u    0.707699  
      14Ag     0.712019     7B2g    0.722630    15Ag     0.722630  
       9B1g    0.739918    12B3g    0.739918     8B2g    0.744790  
      10B3u    0.748202    13B1u    0.748202     7Au     0.755392  
       8Au     0.759319    14B2u    0.759319     9B2g    0.793253  
      16Ag     0.793253    14B1u    0.847663    11B3u    0.847663  
      13B3g    0.855962    10B1g    0.855962    15B2u    0.869413  
      15B1u    0.872683    14B3g    0.885484    11B1g    0.885484  
      17Ag     0.890162    10B2g    0.890162    16B2u    0.900905  
       9Au     0.900905    10Au     0.911772    17B2u    0.911772  
      15B3g    0.964652    18Ag     0.986425    16B1u    0.990817  
      16B3g    1.013901    18B2u    1.022519    19Ag     1.053995  
      19B2u    1.056813    17B1u    1.099231    12B3u    1.099231  
      11B2g    1.127912    17B3g    1.131011    12B1g    1.131011  
      11Au     1.140927    13B3u    1.159594    13B1g    1.159792  
      20Ag     1.176682    12B2g    1.176682    18B1u    1.221677  
      14B3u    1.221677    19B1u    1.247018    15B3u    1.247018  
      20B2u    1.259360    12Au     1.259360    18B3g    1.263833  
      14B1g    1.263833    20B1u    1.296911    19B3g    1.306061  
      15B1g    1.306061    13B2g    1.325616    21Ag     1.325616  
      13Au     1.331802    21B2u    1.331802    20B3g    1.360566  
      22Ag     1.473491    14B2g    1.484441    23Ag     1.484441  
      22B2u    1.485682    14Au     1.566881    23B2u    1.566881  
      16B3u    1.703005    15B2g    1.724307    24Ag     1.724307  
      21B1u    1.734918    16B1g    1.751288    25Ag     1.799797  
      24B2u    1.809296    15Au     1.809296    21B3g    1.844659  
      25B2u    1.851219    16B2g    1.858781    26Ag     1.858781  
      22B1u    1.895467    17B3u    1.895467    27Ag     1.899438  
      16Au     1.913766    26B2u    1.913766    23B1u    1.915770  
      27B2u    1.926925    22B3g    1.930117    17B1g    1.930117  
      24B1u    1.946432    18B3u    1.946432    25B1u    1.960015  
      19B3u    1.960015    23B3g    1.960845    18B1g    1.960845  
      24B3g    2.004959    19B1g    2.004959    25B3g    2.055200  
      20B3u    2.089353    26B1u    2.089353    20B1g    2.119278  
      26B3g    2.119278    21B3u    2.133274    27B1u    2.135779  
      22B3u    2.135779    21B1g    2.138248    17B2g    2.155862  
      28B2u    2.179108    17Au     2.179108    28Ag     2.179928  
      18B2g    2.179928    18Au     2.194614    27B3g    2.210047  
      22B1g    2.210047    29Ag     2.274645    19B2g    2.274645  
      30Ag     2.277482    20B2g    2.277482    29B2u    2.277632  
      19Au     2.277632    28B1u    2.326479    30B2u    2.340327  
      20Au     2.340327    28B3g    2.386611    21B2g    2.510958  
      21Au     2.511111    29B3g    2.576243    29B1u    2.576452  
      31Ag     2.711413    31B2u    2.736727    32Ag     2.753257  
      22B2g    2.753257    30B1u    2.800391    23B3u    2.800391  
      30B3g    2.813698    23B1g    2.813698    32B2u    2.825880  
      22Au     2.825880    31B1u    2.960723    32B1u    2.977040  
      24B3u    2.977040    31B3g    2.997937    24B1g    2.997937  
      32B3g    3.133676    23B2g    3.148507    23Au     3.157487  
      33Ag     3.292297    24B2g    3.292297    33B2u    3.307447  
      24Au     3.307447    33B1u    4.047739    33B3g    4.082232  

    Final Occupation by Irrep:
             Ag   B1g   B2g   B3g    Au   B1u   B2u   B3u 
    DOCC [     7,    5,    3,    6,    3,    6,    7,    5 ]

  Energy converged.

  @RHF Final Energy:  -461.44029760638796

   => Energetics <=

    Nuclear Repulsion Energy =            618.2896430864730064
    One-Electron Energy =               -1849.8599187918919142
    Two-Electron Energy =                 770.1299780990309500
    DFT Exchange-Correlation Energy =       0.0000000000000000
    Empirical Dispersion Energy =           0.0000000000000000
    PCM Polarization Energy =               0.0000000000000000
    EFP Energy =                            0.0000000000000000
    Total Energy =                       -461.4402976063879578

    Alert: EFP and PCM quantities not currently incorporated into SCF psivars.

Properties will be evaluated at   0.000000,   0.000000,   0.000000 Bohr
  ==> Properties <==


Properties computed using the SCF density matrix

  Nuclear Dipole Moment: (a.u.)
     X:     0.0000      Y:     0.0000      Z:    -0.0000

  Electronic Dipole Moment: (a.u.)
     X:     0.0000      Y:     0.0000      Z:     0.0000

  Dipole Moment: (a.u.)
     X:     0.0000      Y:     0.0000      Z:    -0.0000     Total:     0.0000

  Dipole Moment: (Debye)
     X:     0.0000      Y:     0.0000      Z:    -0.0000     Total:     0.0000

  Quadrupole Moment: (Debye Ang)
    XX:   -64.0143     YY:   -81.6134     ZZ:   -64.0143
    XY:    -0.0000     XZ:     0.0000     YZ:     0.0000

  Traceless Quadrupole Moment: (Debye Ang)
    XX:     5.8664     YY:   -11.7328     ZZ:     5.8664
    XY:    -0.0000     XZ:     0.0000     YZ:     0.0000

  Mulliken Charges: (a.u.)
   Center  Symbol    Alpha    Beta     Spin     Total
       1     C     3.00825  3.00825  0.00000 -0.01650
       2     C     3.00825  3.00825  0.00000 -0.01650
       3     C     3.00825  3.00825  0.00000 -0.01650
       4     C     3.00825  3.00825  0.00000 -0.01650
       5     C     3.00825  3.00825  0.00000 -0.01650
       6     C     3.00825  3.00825  0.00000 -0.01650
       7     H     0.49175  0.49175  0.00000  0.01650
       8     H     0.49175  0.49175  0.00000  0.01650
       9     H     0.49175  0.49175  0.00000  0.01650
      10     H     0.49175  0.49175  0.00000  0.01650
      11     H     0.49175  0.49175  0.00000  0.01650
      12     H     0.49175  0.49175  0.00000  0.01650
      13     C     3.00825  3.00825  0.00000 -0.01650
      14     C     3.00825  3.00825  0.00000 -0.01650
      15     C     3.00825  3.00825  0.00000 -0.01650
      16     C     3.00825  3.00825  0.00000 -0.01650
      17     C     3.00825  3.00825  0.00000 -0.01650
      18     C     3.00825  3.00825  0.00000 -0.01650
      19     H     0.49175  0.49175  0.00000  0.01650
      20     H     0.49175  0.49175  0.00000  0.01650
      21     H     0.49175  0.49175  0.00000  0.01650
      22     H     0.49175  0.49175  0.00000  0.01650
      23     H     0.49175  0.49175  0.00000  0.01650
      24     H     0.49175  0.49175  0.00000  0.01650

   Total alpha = 42.00000, Total beta = 42.00000, Total charge = -0.00000


  Saving occupied orbitals to File 180.
   => Loading Basis Set <=

    Role: BASIS
    Keyword: BASIS
    Name: CC-PVDZ
    atoms 1-6, 13-18  entry C          line   130 file /theoryfs2/ds/sherrill/psi4-private/lib/basis/cc-pvdz.gbs
    atoms 7-12, 19-24 entry H          line    20 file /theoryfs2/ds/sherrill/psi4-private/lib/basis/cc-pvdz.gbs


*** tstop() called on ds9.sherrill.chemistry.gatech.edu at Sat Jun  6 13:14:40 2015
Module time:
	user time   =     101.92 seconds =       1.70 minutes
	system time =       0.74 seconds =       0.01 minutes
	total time  =        103 seconds =       1.72 minutes
Total time:
	user time   =     101.92 seconds =       1.70 minutes
	system time =       0.74 seconds =       0.01 minutes
	total time  =        103 seconds =       1.72 minutes

*** PSI4 exiting successfully. Buy a developer a beer!
