    -----------------------------------------------------------------------
          Psi4: An Open-Source Ab Initio Electronic Structure Package
                              Psi4 0.3.1121 Driver

                          Git: Rev {cbs_wrapper} 4e0f3d4 

    J. M. Turney, A. C. Simmonett, R. M. Parrish, E. G. Hohenstein,
    F. A. Evangelista, J. T. Fermann, B. J. Mintz, L. A. Burns, J. J. Wilke,
    M. L. Abrams, N. J. Russ, M. L. Leininger, C. L. Janssen, E. T. Seidl,
    W. D. Allen, H. F. Schaefer, R. A. King, E. F. Valeev, C. D. Sherrill,
    and T. D. Crawford, WIREs Comput. Mol. Sci. 2, 556-565 (2012)
    (doi: 10.1002/wcms.93)

                         Additional Contributions by
    A. E. DePrince, U. Bozkaya, A. Yu. Sokolov, D. G. A. Smith, R. Di Remigio,
    R. M. Richard, J. F. Gonthier, H. R. McAlexander, M. Saitow, and
    B. P. Pritchard
    -----------------------------------------------------------------------


    Psi4 started on: Wed May  4 10:51:18 2016

    Process ID:  20186
    PSI4DATADIR: /home/dsmith/Gits/psi4cbs/share
    Memory level set to 256.000 MB

  ==> Input File <==

--------------------------------------------------------------------------
# NOTE: gradient calcs accessed through an alias to cbs (e.g., sherrill_gold_standard) aren't matching direct calls to cbs

molecule mol {
O
H 1 R
H 1 R 2 A
}

mol.R = 1.0
mol.A = 90.0

set g_convergence gau_verytight

E1 = energy(cbs, corl_wfn='mp2', corl_basis='cc-pV[DT]Z', delta_wfn='ccsd(t)', delta_basis='3-21g')
E2 = energy(sherrill_gold_standard, scf_basis='cc-pVTZ', corl_basis='cc-pV[DT]Z', delta_basis='3-21g')
compare_values(E1, E2, 5, 'Match gold_standard energy')  #TEST

G1 = gradient(cbs, corl_wfn='mp2', corl_basis='cc-pV[DT]Z', delta_wfn='ccsd(t)', delta_basis='3-21g')
G2 = gradient(sherrill_gold_standard, scf_basis='cc-pVTZ', corl_basis='cc-pV[DT]Z', delta_basis='3-21g')
compare_matrices(G1, G2, 5, 'Match gold_standard gradient')  #TEST

# Reset mol geometries
mol.R = 1.0
mol.A = 100.0
E = optimize(cbs, corl_wfn='mp2', corl_basis='cc-pV[DT]Z', delta_wfn='ccsd(t)', delta_basis='3-21g')
compare_values(-76.3707500218, E, 5, '[1a] opt(cbs, sherrill) energy')  #TEST
compare_values(0.960940174888, mol.R, 3, '[1b] opt(cbs, sherrill) bond')  #TEST
compare_values(103.436972667, mol.A, 2, '[1c] opt(cbs, sherrill) angle')  #TEST

# Reset mol geometries
mol.R = 1.0
mol.A = 100.0
E = optimize(sherrill_gold_standard, scf_basis='cc-pVTZ', corl_basis='cc-pV[DT]Z', delta_basis='3-21g')
compare_values(-76.3707500218, E, 5, '[2a] opt(sherrill) energy')  #TEST
compare_values(0.960940174888, mol.R, 3, '[2b] opt(sherrill) bond')  #TEST
compare_values(103.436972667, mol.A, 2, '[2c] opt(sherrill) angle')  #TEST

--------------------------------------------------------------------------
Setting geometry variable R to 1.000000
Setting geometry variable A to 90.000000

  //>>>>>>>>>>>>>>>>>>>>>>>>>>>>>>>>>>>//
  //     CBS Setup: custom function    //
  //<<<<<<<<<<<<<<<<<<<<<<<<<<<<<<<<<<<//

    Naive listing of computations required.
             hf / cc-pvtz                  for  HF TOTAL ENERGY
            mp2 / cc-pvdz                  for  MP2 TOTAL ENERGY
            mp2 / cc-pvtz                  for  MP2 TOTAL ENERGY
             hf / cc-pvdz                  for  HF TOTAL ENERGY
             hf / cc-pvtz                  for  HF TOTAL ENERGY
        ccsd(t) / 3-21g                    for  CCSD(T) TOTAL ENERGY
            mp2 / 3-21g                    for  MP2 TOTAL ENERGY

    Enlightened listing of computations required.
            mp2 / cc-pvdz                  for  MP2 TOTAL ENERGY
            mp2 / cc-pvtz                  for  MP2 TOTAL ENERGY
        ccsd(t) / 3-21g                    for  CCSD(T) TOTAL ENERGY

    Full listing of computations to be obtained (required and bonus).
            mp2 / cc-pvdz                  for  MP2 TOTAL ENERGY
             hf / cc-pvdz                  for  HF TOTAL ENERGY
            mp2 / cc-pvtz                  for  MP2 TOTAL ENERGY
             hf / cc-pvtz                  for  HF TOTAL ENERGY
            mp2 / 3-21g                    for  MP2 TOTAL ENERGY
        ccsd(t) / 3-21g                    for  CCSD(T) TOTAL ENERGY
             hf / 3-21g                    for  HF TOTAL ENERGY
           ccsd / 3-21g                    for  CCSD TOTAL ENERGY

  //>>>>>>>>>>>>>>>>>>>>>>>>>>>>>>>>>>>//
  //   CBS Computation: MP2 / CC-PVDZ  //
  //<<<<<<<<<<<<<<<<<<<<<<<<<<<<<<<<<<<//

    SCF Algorithm Type (re)set to DF.
    There are an even number of electrons - assuming singlet.
    Specify the multiplicity in the molecule input block.


*** tstart() called on ds1.sherrill.chemistry.gatech.edu
*** at Wed May  4 10:51:19 2016


         ---------------------------------------------------------
                                   SCF
            by Justin Turney, Rob Parrish, and Andy Simmonett
                              RHF Reference
                        1 Threads,    256 MiB Core
         ---------------------------------------------------------

  ==> Geometry <==

    Molecular point group: c2v
    Full point group: C2v

    Geometry (in Angstrom), charge = 0, multiplicity = 1:

       Center              X                  Y                   Z               Mass       
    ------------   -----------------  -----------------  -----------------  -----------------
           O          0.000000000000     0.000000000000    -0.079135765807    15.994914619560
           H          0.000000000000    -0.707106781187     0.627971015380     1.007825032070
           H          0.000000000000     0.707106781187     0.627971015380     1.007825032070

  Running in c2v symmetry.

  Rotational constants: A =     18.83462  B =     16.72674  C =      8.85910 [cm^-1]
  Rotational constants: A = 564647.56322  B = 501455.10273  C = 265589.24470 [MHz]
  Nuclear repulsion =    8.841020130083363

  Charge       = 0
  Multiplicity = 1
  Electrons    = 10
  Nalpha       = 5
  Nbeta        = 5

  ==> Algorithm <==

  SCF Algorithm Type is DF.
  DIIS enabled.
  MOM disabled.
  Fractional occupation disabled.
  Guess Type is CORE.
  Energy threshold   = 1.00e-08
  Density threshold  = 1.00e-08
  Integral threshold = 0.00e+00

  ==> Primary Basis <==

  Basis Set: CC-PVDZ
    Number of shells: 12
    Number of basis function: 24
    Number of Cartesian functions: 25
    Spherical Harmonics?: true
    Max angular momentum: 2

  ==> Pre-Iterations <==

   -------------------------------------------------------
    Irrep   Nso     Nmo     Nalpha   Nbeta   Ndocc  Nsocc
   -------------------------------------------------------
     A1        11      11       0       0       0       0
     A2         2       2       0       0       0       0
     B1         4       4       0       0       0       0
     B2         7       7       0       0       0       0
   -------------------------------------------------------
    Total      24      24       5       5       5       0
   -------------------------------------------------------

  ==> Integral Setup <==

  ==> DFJK: Density-Fitted J/K Matrices <==

    J tasked:                  Yes
    K tasked:                  Yes
    wK tasked:                  No
    OpenMP threads:              1
    Integrals threads:           1
    Memory (MB):               183
    Algorithm:                Core
    Integral Cache:           NONE
    Schwarz Cutoff:          1E-12
    Fitting Condition:       1E-12

   => Auxiliary Basis Set <=

  Basis Set: 
    Number of shells: 42
    Number of basis function: 116
    Number of Cartesian functions: 131
    Spherical Harmonics?: true
    Max angular momentum: 3

  Minimum eigenvalue in the overlap matrix is 3.5753954651E-02.
  Using Symmetric Orthogonalization.
  SCF Guess: Core (One-Electron) Hamiltonian.

  ==> Iterations <==

                           Total Energy        Delta E     RMS |[F,P]|

    Occupation by irrep:
             A1    A2    B1    B2 
    DOCC [     3,    0,    0,    2 ]

   @DF-RHF iter   1:   -68.88875817095830   -6.88888e+01   2.17602e-01 
    Occupation by irrep:
             A1    A2    B1    B2 
    DOCC [     3,    0,    1,    1 ]

   @DF-RHF iter   2:   -69.56135263761398   -6.72594e-01   1.89825e-01 DIIS
   @DF-RHF iter   3:   -75.75708752997478   -6.19573e+00   5.90796e-02 DIIS
   @DF-RHF iter   4:   -75.99467722450726   -2.37590e-01   1.55544e-02 DIIS
   @DF-RHF iter   5:   -76.01640767129847   -2.17304e-02   1.49528e-03 DIIS
   @DF-RHF iter   6:   -76.01670560565427   -2.97934e-04   7.91311e-04 DIIS
   @DF-RHF iter   7:   -76.01675949006577   -5.38844e-05   9.90642e-05 DIIS
   @DF-RHF iter   8:   -76.01676131037276   -1.82031e-06   3.76576e-05 DIIS
   @DF-RHF iter   9:   -76.01676142490601   -1.14533e-07   1.88399e-06 DIIS
   @DF-RHF iter  10:   -76.01676142556677   -6.60762e-10   6.65691e-07 DIIS
   @DF-RHF iter  11:   -76.01676142561153   -4.47642e-11   9.45076e-08 DIIS
   @DF-RHF iter  12:   -76.01676142561324   -1.70530e-12   1.25888e-08 DIIS
   @DF-RHF iter  13:   -76.01676142561330   -5.68434e-14   9.62931e-10 DIIS

  ==> Post-Iterations <==

    Orbital Energies (a.u.)
    -----------------------

    Doubly Occupied:                                                      

       1A1   -20.565316     2A1    -1.327476     1B2    -0.649293  
       3A1    -0.588228     1B1    -0.495620  

    Virtual:                                                              

       4A1     0.174517     2B2     0.250028     3B2     0.723013  
       5A1     0.866107     6A1     1.189054     2B1     1.194266  
       4B2     1.272532     7A1     1.307961     1A2     1.520567  
       3B1     1.584486     8A1     1.852864     5B2     1.970029  
       6B2     2.355546     9A1     2.417493     2A2     3.249113  
       4B1     3.307847    10A1     3.412254    11A1     3.799098  
       7B2     4.148059  

    Final Occupation by Irrep:
             A1    A2    B1    B2 
    DOCC [     3,    0,    1,    1 ]

  Energy converged.

  @DF-RHF Final Energy:   -76.01676142561330

   => Energetics <=

    Nuclear Repulsion Energy =              8.8410201300833631
    One-Electron Energy =                -122.4636976546876781
    Two-Electron Energy =                  37.6059160989910026
    DFT Exchange-Correlation Energy =       0.0000000000000000
    Empirical Dispersion Energy =           0.0000000000000000
    PCM Polarization Energy =               0.0000000000000000
    EFP Energy =                            0.0000000000000000
    Total Energy =                        -76.0167614256133106


  Saving occupied orbitals to File 180.

*** tstop() called on ds1.sherrill.chemistry.gatech.edu at Wed May  4 10:51:19 2016
Module time:
	user time   =       0.08 seconds =       0.00 minutes
	system time =       0.01 seconds =       0.00 minutes
	total time  =          0 seconds =       0.00 minutes
Total time:
	user time   =       0.08 seconds =       0.00 minutes
	system time =       0.01 seconds =       0.00 minutes
	total time  =          0 seconds =       0.00 minutes


Properties will be evaluated at   0.000000,   0.000000,   0.000000 Bohr

Properties computed using the SCF density matrix

  Nuclear Dipole Moment: (a.u.)
     X:     0.0000      Y:     0.0000      Z:     1.1770

  Electronic Dipole Moment: (a.u.)
     X:     0.0000      Y:     0.0000      Z:    -0.2705

  Dipole Moment: (a.u.)
     X:     0.0000      Y:     0.0000      Z:     0.9066     Total:     0.9066

  Dipole Moment: (Debye)
     X:     0.0000      Y:     0.0000      Z:     2.3043     Total:     2.3043


  //>>>>>>>>>>>>>>>>>>>>>>>>>>>>>>>>>>>//
  //               DFMP2               //
  //<<<<<<<<<<<<<<<<<<<<<<<<<<<<<<<<<<<//


*** tstart() called on ds1.sherrill.chemistry.gatech.edu
*** at Wed May  4 10:51:19 2016


*** tstop() called on ds1.sherrill.chemistry.gatech.edu at Wed May  4 10:51:19 2016
Module time:
	user time   =       0.02 seconds =       0.00 minutes
	system time =       0.00 seconds =       0.00 minutes
	total time  =          0 seconds =       0.00 minutes
Total time:
	user time   =       0.10 seconds =       0.00 minutes
	system time =       0.01 seconds =       0.00 minutes
	total time  =          0 seconds =       0.00 minutes
	 --------------------------------------------------------
	                          DF-MP2                         
	      2nd-Order Density-Fitted Moller-Plesset Theory     
	              RMP2 Wavefunction,   1 Threads             
	                                                         
	        Rob Parrish, Justin Turney, Andy Simmonett,      
	           Ed Hohenstein, and C. David Sherrill          
	 --------------------------------------------------------

   => Auxiliary Basis Set <=

  Basis Set: 
    Number of shells: 30
    Number of basis function: 84
    Number of Cartesian functions: 96
    Spherical Harmonics?: true
    Max angular momentum: 3

	 --------------------------------------------------------
	                 NBF =    24, NAUX =    84
	 --------------------------------------------------------
	   CLASS    FOCC     OCC    AOCC    AVIR     VIR    FVIR
	   PAIRS       0       5       5      19      19       0
	 --------------------------------------------------------

	-----------------------------------------------------------
	 ==================> DF-MP2 Energies <==================== 
	-----------------------------------------------------------
	 Reference Energy          =     -76.0167614256132964 [Eh]
	 Singles Energy            =      -0.0000000000000001 [Eh]
	 Same-Spin Energy          =      -0.0527406422061203 [Eh]
	 Opposite-Spin Energy      =      -0.1562926850310125 [Eh]
	 Correlation Energy        =      -0.2090333272371329 [Eh]
	 Total Energy              =     -76.2257947528504332 [Eh]
	-----------------------------------------------------------
	 ================> DF-SCS-MP2 Energies <================== 
	-----------------------------------------------------------
	 SCS Same-Spin Scale       =       0.3333333333333333 [-]
	 SCS Opposite-Spin Scale   =       1.2000000000000000 [-]
	 SCS Same-Spin Energy      =      -0.0175802140687068 [Eh]
	 SCS Opposite-Spin Energy  =      -0.1875512220372151 [Eh]
	 SCS Correlation Energy    =      -0.2051314361059219 [Eh]
	 SCS Total Energy          =     -76.2218928617192120 [Eh]
	-----------------------------------------------------------


  //>>>>>>>>>>>>>>>>>>>>>>>>>>>>>>>>>>>//
  //   CBS Computation: MP2 / CC-PVTZ  //
  //<<<<<<<<<<<<<<<<<<<<<<<<<<<<<<<<<<<//

    SCF Algorithm Type (re)set to DF.

*** tstart() called on ds1.sherrill.chemistry.gatech.edu
*** at Wed May  4 10:51:19 2016


         ---------------------------------------------------------
                                   SCF
            by Justin Turney, Rob Parrish, and Andy Simmonett
                              RHF Reference
                        1 Threads,    256 MiB Core
         ---------------------------------------------------------

  ==> Geometry <==

    Molecular point group: c2v
    Full point group: C2v

    Geometry (in Angstrom), charge = 0, multiplicity = 1:

       Center              X                  Y                   Z               Mass       
    ------------   -----------------  -----------------  -----------------  -----------------
           O          0.000000000000     0.000000000000    -0.079135765807    15.994914619560
           H          0.000000000000    -0.707106781187     0.627971015380     1.007825032070
           H          0.000000000000     0.707106781187     0.627971015380     1.007825032070

  Running in c2v symmetry.

  Rotational constants: A =     18.83462  B =     16.72674  C =      8.85910 [cm^-1]
  Rotational constants: A = 564647.56322  B = 501455.10273  C = 265589.24470 [MHz]
  Nuclear repulsion =    8.841020130083374

  Charge       = 0
  Multiplicity = 1
  Electrons    = 10
  Nalpha       = 5
  Nbeta        = 5

  ==> Algorithm <==

  SCF Algorithm Type is DF.
  DIIS enabled.
  MOM disabled.
  Fractional occupation disabled.
  Guess Type is CORE.
  Energy threshold   = 1.00e-08
  Density threshold  = 1.00e-08
  Integral threshold = 0.00e+00

  ==> Primary Basis <==

  Basis Set: CC-PVTZ
    Number of shells: 22
    Number of basis function: 58
    Number of Cartesian functions: 65
    Spherical Harmonics?: true
    Max angular momentum: 3

  ==> Pre-Iterations <==

   -------------------------------------------------------
    Irrep   Nso     Nmo     Nalpha   Nbeta   Ndocc  Nsocc
   -------------------------------------------------------
     A1        23      23       0       0       0       0
     A2         7       7       0       0       0       0
     B1        11      11       0       0       0       0
     B2        17      17       0       0       0       0
   -------------------------------------------------------
    Total      58      58       5       5       5       0
   -------------------------------------------------------

  ==> Integral Setup <==

  ==> DFJK: Density-Fitted J/K Matrices <==

    J tasked:                  Yes
    K tasked:                  Yes
    wK tasked:                  No
    OpenMP threads:              1
    Integrals threads:           1
    Memory (MB):               183
    Algorithm:                Core
    Integral Cache:           NONE
    Schwarz Cutoff:          1E-12
    Fitting Condition:       1E-12

   => Auxiliary Basis Set <=

  Basis Set: 
    Number of shells: 45
    Number of basis function: 139
    Number of Cartesian functions: 166
    Spherical Harmonics?: true
    Max angular momentum: 4

  Minimum eigenvalue in the overlap matrix is 3.0450400003E-03.
  Using Symmetric Orthogonalization.
  SCF Guess: Core (One-Electron) Hamiltonian.

  ==> Iterations <==

                           Total Energy        Delta E     RMS |[F,P]|

    Occupation by irrep:
             A1    A2    B1    B2 
    DOCC [     3,    0,    0,    2 ]

   @DF-RHF iter   1:   -61.28693901213862   -6.12869e+01   2.47306e-01 
    Occupation by irrep:
             A1    A2    B1    B2 
    DOCC [     3,    0,    1,    1 ]

   @DF-RHF iter   2:   -66.13694864380497   -4.85001e+00   9.63831e-02 DIIS
   @DF-RHF iter   3:   -73.45605957859722   -7.31911e+00   9.30744e-02 DIIS
   @DF-RHF iter   4:   -75.57239449231464   -2.11633e+00   3.56414e-02 DIIS
   @DF-RHF iter   5:   -76.04009968206775   -4.67705e-01   2.85470e-03 DIIS
   @DF-RHF iter   6:   -76.04496268540842   -4.86300e-03   1.37453e-03 DIIS
   @DF-RHF iter   7:   -76.04558271768074   -6.20032e-04   2.46016e-04 DIIS
   @DF-RHF iter   8:   -76.04561856064093   -3.58430e-05   3.86699e-05 DIIS
   @DF-RHF iter   9:   -76.04562026482908   -1.70419e-06   7.74488e-06 DIIS
   @DF-RHF iter  10:   -76.04562034050325   -7.56742e-08   1.12986e-06 DIIS
   @DF-RHF iter  11:   -76.04562034174883   -1.24558e-09   3.16954e-07 DIIS
   @DF-RHF iter  12:   -76.04562034180108   -5.22533e-11   4.92939e-08 DIIS
   @DF-RHF iter  13:   -76.04562034180289   -1.80478e-12   5.89731e-09 DIIS

  ==> Post-Iterations <==

    Orbital Energies (a.u.)
    -----------------------

    Doubly Occupied:                                                      

       1A1   -20.569011     2A1    -1.335563     1B2    -0.659218  
       3A1    -0.598294     1B1    -0.506085  

    Virtual:                                                              

       4A1     0.134084     2B2     0.202152     3B2     0.506985  
       5A1     0.610437     6A1     0.672014     7A1     0.748462  
       2B1     0.781357     4B2     0.814896     1A2     0.885465  
       3B1     0.896059     8A1     1.179746     5B2     1.213277  
       6B2     1.466540     9A1     1.532115     2A2     2.018485  
       4B1     2.071019    10A1     2.110133     7B2     2.121866  
      11A1     2.230333    12A1     2.607373     8B2     2.944181  
       5B1     3.221514    13A1     3.375594     9B2     3.663789  
       3A2     3.685107     6B1     3.739022    10B2     3.901646  
      14A1     3.925662     4A2     3.949592     7B1     3.993426  
      11B2     4.013134    15A1     4.106315    16A1     4.247456  
       5A2     4.249160    12B2     4.578409     8B1     4.627852  
      13B2     4.995937    17A1     5.044458    18A1     5.267082  
      14B2     5.469864     9B1     5.977338    19A1     6.531908  
      15B2     6.634714    10B1     6.740066     6A2     6.832219  
      20A1     6.900504    11B1     7.067399     7A2     7.158795  
      21A1     7.292830    22A1     7.417253    16B2     7.743223  
      17B2     8.159610    23A1    12.160527  

    Final Occupation by Irrep:
             A1    A2    B1    B2 
    DOCC [     3,    0,    1,    1 ]

  Energy converged.

  @DF-RHF Final Energy:   -76.04562034180289

   => Energetics <=

    Nuclear Repulsion Energy =              8.8410201300833737
    One-Electron Energy =                -122.4369405115766796
    Two-Electron Energy =                  37.5503000396904341
    DFT Exchange-Correlation Energy =       0.0000000000000000
    Empirical Dispersion Energy =           0.0000000000000000
    PCM Polarization Energy =               0.0000000000000000
    EFP Energy =                            0.0000000000000000
    Total Energy =                        -76.0456203418028736


  Saving occupied orbitals to File 180.

*** tstop() called on ds1.sherrill.chemistry.gatech.edu at Wed May  4 10:51:19 2016
Module time:
	user time   =       0.13 seconds =       0.00 minutes
	system time =       0.00 seconds =       0.00 minutes
	total time  =          0 seconds =       0.00 minutes
Total time:
	user time   =       0.30 seconds =       0.01 minutes
	system time =       0.01 seconds =       0.00 minutes
	total time  =          0 seconds =       0.00 minutes


Properties will be evaluated at   0.000000,   0.000000,   0.000000 Bohr

Properties computed using the SCF density matrix

  Nuclear Dipole Moment: (a.u.)
     X:     0.0000      Y:     0.0000      Z:     1.1770

  Electronic Dipole Moment: (a.u.)
     X:     0.0000      Y:     0.0000      Z:    -0.2801

  Dipole Moment: (a.u.)
     X:     0.0000      Y:     0.0000      Z:     0.8970     Total:     0.8970

  Dipole Moment: (Debye)
     X:     0.0000      Y:     0.0000      Z:     2.2798     Total:     2.2798


  //>>>>>>>>>>>>>>>>>>>>>>>>>>>>>>>>>>>//
  //               DFMP2               //
  //<<<<<<<<<<<<<<<<<<<<<<<<<<<<<<<<<<<//


*** tstart() called on ds1.sherrill.chemistry.gatech.edu
*** at Wed May  4 10:51:19 2016


*** tstop() called on ds1.sherrill.chemistry.gatech.edu at Wed May  4 10:51:19 2016
Module time:
	user time   =       0.02 seconds =       0.00 minutes
	system time =       0.00 seconds =       0.00 minutes
	total time  =          0 seconds =       0.00 minutes
Total time:
	user time   =       0.32 seconds =       0.01 minutes
	system time =       0.01 seconds =       0.00 minutes
	total time  =          0 seconds =       0.00 minutes
	 --------------------------------------------------------
	                          DF-MP2                         
	      2nd-Order Density-Fitted Moller-Plesset Theory     
	              RMP2 Wavefunction,   1 Threads             
	                                                         
	        Rob Parrish, Justin Turney, Andy Simmonett,      
	           Ed Hohenstein, and C. David Sherrill          
	 --------------------------------------------------------

   => Auxiliary Basis Set <=

  Basis Set: 
    Number of shells: 43
    Number of basis function: 141
    Number of Cartesian functions: 171
    Spherical Harmonics?: true
    Max angular momentum: 4

	 --------------------------------------------------------
	                 NBF =    58, NAUX =   141
	 --------------------------------------------------------
	   CLASS    FOCC     OCC    AOCC    AVIR     VIR    FVIR
	   PAIRS       0       5       5      53      53       0
	 --------------------------------------------------------

	-----------------------------------------------------------
	 ==================> DF-MP2 Energies <==================== 
	-----------------------------------------------------------
	 Reference Energy          =     -76.0456203418028878 [Eh]
	 Singles Energy            =      -0.0000000000000088 [Eh]
	 Same-Spin Energy          =      -0.0678370767773459 [Eh]
	 Opposite-Spin Energy      =      -0.2120432964807235 [Eh]
	 Correlation Energy        =      -0.2798803732580782 [Eh]
	 Total Energy              =     -76.3255007150609686 [Eh]
	-----------------------------------------------------------
	 ================> DF-SCS-MP2 Energies <================== 
	-----------------------------------------------------------
	 SCS Same-Spin Scale       =       0.3333333333333333 [-]
	 SCS Opposite-Spin Scale   =       1.2000000000000000 [-]
	 SCS Same-Spin Energy      =      -0.0226123589257820 [Eh]
	 SCS Opposite-Spin Energy  =      -0.2544519557768682 [Eh]
	 SCS Correlation Energy    =      -0.2770643147026590 [Eh]
	 SCS Total Energy          =     -76.3226846565055439 [Eh]
	-----------------------------------------------------------


  //>>>>>>>>>>>>>>>>>>>>>>>>>>>>>>>>>>>//
  //  CBS Computation: CCSD(T) / 3-21G //
  //<<<<<<<<<<<<<<<<<<<<<<<<<<<<<<<<<<<//


*** tstart() called on ds1.sherrill.chemistry.gatech.edu
*** at Wed May  4 10:51:19 2016


         ---------------------------------------------------------
                                   SCF
            by Justin Turney, Rob Parrish, and Andy Simmonett
                              RHF Reference
                        1 Threads,    256 MiB Core
         ---------------------------------------------------------

  ==> Geometry <==

    Molecular point group: c2v
    Full point group: C2v

    Geometry (in Angstrom), charge = 0, multiplicity = 1:

       Center              X                  Y                   Z               Mass       
    ------------   -----------------  -----------------  -----------------  -----------------
           O          0.000000000000     0.000000000000    -0.079135765807    15.994914619560
           H          0.000000000000    -0.707106781187     0.627971015380     1.007825032070
           H          0.000000000000     0.707106781187     0.627971015380     1.007825032070

  Running in c2v symmetry.

  Rotational constants: A =     18.83462  B =     16.72674  C =      8.85910 [cm^-1]
  Rotational constants: A = 564647.56322  B = 501455.10273  C = 265589.24470 [MHz]
  Nuclear repulsion =    8.841020130083376

  Charge       = 0
  Multiplicity = 1
  Electrons    = 10
  Nalpha       = 5
  Nbeta        = 5

  ==> Algorithm <==

  SCF Algorithm Type is PK.
  DIIS enabled.
  MOM disabled.
  Fractional occupation disabled.
  Guess Type is CORE.
  Energy threshold   = 1.00e-08
  Density threshold  = 1.00e-08
  Integral threshold = 0.00e+00

  ==> Primary Basis <==

  Basis Set: 3-21G
    Number of shells: 9
    Number of basis function: 13
    Number of Cartesian functions: 13
    Spherical Harmonics?: false
    Max angular momentum: 1

  ==> Pre-Iterations <==

   -------------------------------------------------------
    Irrep   Nso     Nmo     Nalpha   Nbeta   Ndocc  Nsocc
   -------------------------------------------------------
     A1         7       7       0       0       0       0
     A2         0       0       0       0       0       0
     B1         2       2       0       0       0       0
     B2         4       4       0       0       0       0
   -------------------------------------------------------
    Total      13      13       5       5       5       0
   -------------------------------------------------------

  ==> Integral Setup <==

	Batch   1 pq = [       0,      41] index = [             0,861]
  ==> DiskJK: Disk-Based J/K Matrices <==

    J tasked:                  Yes
    K tasked:                  Yes
    wK tasked:                  No
    Memory (MB):               183
    Schwarz Cutoff:          1E-12

  Minimum eigenvalue in the overlap matrix is 1.1381533996E-01.
  Using Symmetric Orthogonalization.
  SCF Guess: Core (One-Electron) Hamiltonian.

  ==> Iterations <==

                        Total Energy        Delta E     RMS |[F,P]|

    Occupation by irrep:
             A1    A2    B1    B2 
    DOCC [     4,    0,    0,    1 ]

   @RHF iter   1:   -65.99695413234473   -6.59970e+01   4.81926e-01 
    Occupation by irrep:
             A1    A2    B1    B2 
    DOCC [     3,    0,    1,    1 ]

   @RHF iter   2:   -71.43242703440045   -5.43547e+00   2.94142e-01 DIIS
   @RHF iter   3:   -75.45351264374861   -4.02109e+00   6.90723e-02 DIIS
   @RHF iter   4:   -75.56887217791009   -1.15360e-01   1.19712e-02 DIIS
   @RHF iter   5:   -75.57517221292328   -6.30004e-03   2.76784e-03 DIIS
   @RHF iter   6:   -75.57546917060949   -2.96958e-04   9.12528e-04 DIIS
   @RHF iter   7:   -75.57551609000986   -4.69194e-05   2.26860e-04 DIIS
   @RHF iter   8:   -75.57551811315673   -2.02315e-06   2.89850e-05 DIIS
   @RHF iter   9:   -75.57551815751721   -4.43605e-08   3.29377e-06 DIIS
   @RHF iter  10:   -75.57551815781983   -3.02620e-10   2.57559e-07 DIIS
   @RHF iter  11:   -75.57551815782368   -3.85114e-12   1.71409e-08 DIIS
   @RHF iter  12:   -75.57551815782377   -8.52651e-14   2.72982e-09 DIIS

  ==> Post-Iterations <==

    Orbital Energies (a.u.)
    -----------------------

    Doubly Occupied:                                                      

       1A1   -20.449406     2A1    -1.325898     1B2    -0.638689  
       3A1    -0.561339     1B1    -0.486500  

    Virtual:                                                              

       4A1     0.246568     2B2     0.338289     3B2     1.116169  
       5A1     1.318069     2B1     1.773841     6A1     1.914652  
       4B2     1.985259     7A1     3.104996  

    Final Occupation by Irrep:
             A1    A2    B1    B2 
    DOCC [     3,    0,    1,    1 ]

  Energy converged.

  @RHF Final Energy:   -75.57551815782377

   => Energetics <=

    Nuclear Repulsion Energy =              8.8410201300833755
    One-Electron Energy =                -121.9094150389175866
    Two-Electron Energy =                  37.4928767510104493
    DFT Exchange-Correlation Energy =       0.0000000000000000
    Empirical Dispersion Energy =           0.0000000000000000
    PCM Polarization Energy =               0.0000000000000000
    EFP Energy =                            0.0000000000000000
    Total Energy =                        -75.5755181578237512


  Saving occupied orbitals to File 180.

*** tstop() called on ds1.sherrill.chemistry.gatech.edu at Wed May  4 10:51:19 2016
Module time:
	user time   =       0.02 seconds =       0.00 minutes
	system time =       0.00 seconds =       0.00 minutes
	total time  =          0 seconds =       0.00 minutes
Total time:
	user time   =       0.43 seconds =       0.01 minutes
	system time =       0.02 seconds =       0.00 minutes
	total time  =          0 seconds =       0.00 minutes


Properties will be evaluated at   0.000000,   0.000000,   0.000000 Bohr

Properties computed using the SCF density matrix

  Nuclear Dipole Moment: (a.u.)
     X:     0.0000      Y:     0.0000      Z:     1.1770

  Electronic Dipole Moment: (a.u.)
     X:     0.0000      Y:     0.0000      Z:    -0.1401

  Dipole Moment: (a.u.)
     X:     0.0000      Y:     0.0000      Z:     1.0369     Total:     1.0369

  Dipole Moment: (Debye)
     X:     0.0000      Y:     0.0000      Z:     2.6355     Total:     2.6355


*** tstart() called on ds1.sherrill.chemistry.gatech.edu
*** at Wed May  4 10:51:19 2016


	Wfn Parameters:
	--------------------
	Wavefunction         = CCSD_T
	Number of irreps     = 4
	Number of MOs        = 13
	Number of active MOs = 13
	AO-Basis             = NONE
	Semicanonical        = false
	Reference            = RHF
	Print Level          = 1

	IRREP	# MOs	# FZDC	# DOCC	# SOCC	# VIRT	# FZVR
	-----	-----	------	------	------	------	------
	 A1	   7	    0	    3	    0	    4	    0
	 A2	   0	    0	    0	    0	    0	    0
	 B1	   2	    0	    1	    0	    1	    0
	 B2	   4	    0	    1	    0	    3	    0
	Transforming integrals...
	IWL integrals will be deleted.
	(OO|OO)...
	Presorting SO-basis two-electron integrals.
	Sorting File: SO Ints (nn|nn) nbuckets = 1
	Transforming the one-electron integrals and constructing Fock matrices
	Starting first half-transformation.
	Sorting half-transformed integrals.
	First half integral transformation complete.
	Starting second half-transformation.
	Two-electron integral transformation complete.
	(OO|OV)...
	Starting second half-transformation.
	Two-electron integral transformation complete.
	(OO|VV)...
	Starting second half-transformation.
	Two-electron integral transformation complete.
	(OV|OO)...
	Starting first half-transformation.
	Sorting half-transformed integrals.
	First half integral transformation complete.
	Starting second half-transformation.
	Two-electron integral transformation complete.
	(OV|OV)...
	Starting second half-transformation.
	Two-electron integral transformation complete.
	(OV|VV)...
	Starting second half-transformation.
	Two-electron integral transformation complete.
	(VV|OO)...
	Starting first half-transformation.
	Sorting half-transformed integrals.
	First half integral transformation complete.
	Starting second half-transformation.
	Two-electron integral transformation complete.
	(VV|OV)...
	Starting second half-transformation.
	Two-electron integral transformation complete.
	(VV|VV)...
	Starting second half-transformation.
	Two-electron integral transformation complete.
	Frozen core energy     =      0.00000000000000

	Size of irrep 0 of <ab|cd> integrals:      0.001 (MW) /      0.005 (MB)
	Size of irrep 1 of <ab|cd> integrals:      0.000 (MW) /      0.000 (MB)
	Size of irrep 2 of <ab|cd> integrals:      0.000 (MW) /      0.001 (MB)
	Size of irrep 3 of <ab|cd> integrals:      0.001 (MW) /      0.005 (MB)
	Total:                                     0.001 (MW) /      0.011 (MB)

	Size of irrep 0 of <ia|bc> integrals:      0.000 (MW) /      0.003 (MB)
	Size of irrep 1 of <ia|bc> integrals:      0.000 (MW) /      0.000 (MB)
	Size of irrep 2 of <ia|bc> integrals:      0.000 (MW) /      0.000 (MB)
	Size of irrep 3 of <ia|bc> integrals:      0.000 (MW) /      0.002 (MB)
	Total:                                     0.001 (MW) /      0.006 (MB)

	Size of irrep 0 of tijab amplitudes:       0.000 (MW) /      0.002 (MB)
	Size of irrep 1 of tijab amplitudes:       0.000 (MW) /      0.000 (MB)
	Size of irrep 2 of tijab amplitudes:       0.000 (MW) /      0.000 (MB)
	Size of irrep 3 of tijab amplitudes:       0.000 (MW) /      0.001 (MB)
	Total:                                     0.000 (MW) /      0.004 (MB)

	Nuclear Rep. energy          =      8.84102013008338
	SCF energy                   =    -75.57551815782377
	One-electron energy          =   -121.90941496431061
	Two-electron energy          =     37.49287667640348
	Reference energy             =    -75.57551815782377

*** tstop() called on ds1.sherrill.chemistry.gatech.edu at Wed May  4 10:51:19 2016
Module time:
	user time   =       0.01 seconds =       0.00 minutes
	system time =       0.03 seconds =       0.00 minutes
	total time  =          0 seconds =       0.00 minutes
Total time:
	user time   =       0.44 seconds =       0.01 minutes
	system time =       0.05 seconds =       0.00 minutes
	total time  =          0 seconds =       0.00 minutes

*** tstart() called on ds1.sherrill.chemistry.gatech.edu
*** at Wed May  4 10:51:19 2016

            **************************
            *                        *
            *        CCENERGY        *
            *                        *
            **************************

    Nuclear Rep. energy (wfn)     =    8.841020130083376
    SCF energy          (wfn)     =  -75.575518157823765
    Reference energy    (file100) =  -75.575518157823765

    Input parameters:
    -----------------
    Wave function   =     CCSD_T
    Reference wfn   =     RHF
    Brueckner       =     No
    Memory (Mbytes) =     256.0
    Maxiter         =     50
    R_Convergence   =     1.0e-07
    E_Convergence   =     1.0e-06
    Restart         =     Yes
    DIIS            =     Yes
    AO Basis        =     NONE
    ABCD            =     NEW
    Cache Level     =     2
    Cache Type      =     LOW
    Print Level     =     1
    Num. of threads =     1
    # Amps to Print =     10
    Print MP2 Amps? =     No
    Analyze T2 Amps =     No
    Print Pair Ener =     No
    Local CC        =     No
    SCS-MP2         =     False
    SCSN-MP2        =     False
    SCS-CCSD        =     False

MP2 correlation energy -0.1272447367610070
                Solving CC Amplitude Equations
                ------------------------------
  Iter             Energy              RMS        T1Diag      D1Diag    New D1Diag    D2Diag
  ----     ---------------------    ---------   ----------  ----------  ----------   --------
     0        -0.127244736761007    0.000e+00    0.000000    0.000000    0.000000    0.101353
     1        -0.130207088002561    2.878e-02    0.004502    0.010302    0.010302    0.112996
     2        -0.134571732344615    1.151e-02    0.005824    0.012936    0.012936    0.122180
     3        -0.134848170304638    2.339e-03    0.006197    0.013668    0.013668    0.123857
     4        -0.134872079204213    6.299e-04    0.006268    0.014009    0.014009    0.124118
     5        -0.134871213730818    1.646e-04    0.006296    0.014146    0.014146    0.124116
     6        -0.134869473872023    3.624e-05    0.006303    0.014177    0.014177    0.124101
     7        -0.134869774273375    8.459e-06    0.006304    0.014186    0.014186    0.124099
     8        -0.134869642276993    1.889e-06    0.006305    0.014187    0.014187    0.124099
     9        -0.134869639975407    4.778e-07    0.006305    0.014187    0.014187    0.124099
    10        -0.134869639068500    7.264e-08    0.006305    0.014187    0.014187    0.124099

    Iterations converged.


    Largest TIA Amplitudes:
              2   0         0.0116719388
              4   7         0.0113050611
              4   5        -0.0066499457
              2   2         0.0064322909
              1   2        -0.0042534015
              2   3        -0.0036971096
              1   3         0.0029508706
              4   6        -0.0023421179
              1   1         0.0010007840
              2   1         0.0007404795

    Largest TIjAb Amplitudes:
      4   4   5   5        -0.0620603627
      3   3   4   4        -0.0435418277
      2   4   0   5         0.0352974770
      4   2   5   0         0.0352974770
      2   2   0   0        -0.0341255437
      2   2   2   2        -0.0302349865
      4   4   6   6        -0.0284250656
      2   2   5   5        -0.0269871823
      4   4   0   0        -0.0257792151
      4   4   5   6        -0.0249977214

    SCF energy       (wfn)                    =  -75.575518157823765
    Reference energy (file100)                =  -75.575518157823765

    Opposite-spin MP2 correlation energy      =   -0.098646321210604
    Same-spin MP2 correlation energy          =   -0.028598415550403
    MP2 correlation energy                    =   -0.127244736761007
      * MP2 total energy                      =  -75.702762894584779

    Opposite-spin CCSD correlation energy     =   -0.111391588807128
    Same-spin CCSD correlation energy         =   -0.023478050290383
    CCSD correlation energy                   =   -0.134869639068500
      * CCSD total energy                     =  -75.710387796892263


*** tstop() called on ds1.sherrill.chemistry.gatech.edu at Wed May  4 10:51:19 2016
Module time:
	user time   =       0.04 seconds =       0.00 minutes
	system time =       0.19 seconds =       0.00 minutes
	total time  =          0 seconds =       0.00 minutes
Total time:
	user time   =       0.48 seconds =       0.01 minutes
	system time =       0.24 seconds =       0.00 minutes
	total time  =          0 seconds =       0.00 minutes

*** tstart() called on ds1.sherrill.chemistry.gatech.edu
*** at Wed May  4 10:51:19 2016

            **************************
            *                        *
            *        CCTRIPLES       *
            *                        *
            **************************


    Wave function   =    CCSD_T
    Reference wfn   =      RHF

    Nuclear Rep. energy (wfn)                =    8.841020130083376
    SCF energy          (wfn)                =  -75.575518157823765
    Reference energy    (file100)            =  -75.575518157823765
    CCSD energy         (file100)            =   -0.134869639068500
    Total CCSD energy   (file100)            =  -75.710387796892263

    Number of ijk index combinations:               35
    Memory available in words        :        32000000
    ~Words needed per explicit thread:             256
    Number of threads for explicit ijk threading:    1

    (T) energy                                =   -0.001623298437625
      * CCSD(T) total energy                  =  -75.712011095329885


*** tstop() called on ds1.sherrill.chemistry.gatech.edu at Wed May  4 10:51:20 2016
Module time:
	user time   =       0.01 seconds =       0.00 minutes
	system time =       0.02 seconds =       0.00 minutes
	total time  =          1 seconds =       0.02 minutes
Total time:
	user time   =       0.49 seconds =       0.01 minutes
	system time =       0.26 seconds =       0.00 minutes
	total time  =          1 seconds =       0.02 minutes

  //>>>>>>>>>>>>>>>>>>>>>>>>>>>>>>>>>>>//
  //    CBS Results: custom function   //
  //<<<<<<<<<<<<<<<<<<<<<<<<<<<<<<<<<<<//


   ==> HF <==

   HI-zeta (3) Energy:               -76.045620341803


   ==> Helgaker 2-point correlated extrapolation for method: MP2 <==

   LO-zeta (2) Energy:               -76.225794752850
   HI-zeta (3) Energy:               -76.325500715061
   Beta (coefficient) Value:           1.133499359867
   Extrapolated Energy:              -76.367482172834

   @Extrapolated MP2/(D,T):          -76.367482172834



   ==> Helgaker 2-point correlated extrapolation for method: HF <==

   LO-zeta (2) Energy:               -76.016761425613
   HI-zeta (3) Energy:               -76.045620341803
   Beta (coefficient) Value:           0.328080310366
   Extrapolated Energy:              -76.057771464409

   @Extrapolated HF/(D,T):           -76.057771464409


   ==> CCSD(T) <==

   HI-zeta (0) Energy:               -75.712011095330

   ==> MP2 <==

   HI-zeta (0) Energy:               -75.702762894585

   ==> Components <==

  ---------------------------------------------------------------------------------------------------------
                          Method / Basis                      Rqd      Energy [Eh]   Variable
  ---------------------------------------------------------------------------------------------------------
                             mp2 / cc-pvdz                      *     -76.22579475   MP2 TOTAL ENERGY
                              hf / cc-pvdz                      *     -76.01676143   HF TOTAL ENERGY
                             mp2 / cc-pvtz                      *     -76.32550072   MP2 TOTAL ENERGY
                              hf / cc-pvtz                      *     -76.04562034   HF TOTAL ENERGY
                             mp2 / 3-21g                        *     -75.70276289   MP2 TOTAL ENERGY
                         ccsd(t) / 3-21g                        *     -75.71201110   CCSD(T) TOTAL ENERGY
                              hf / 3-21g                              -75.57551816   HF TOTAL ENERGY
                            ccsd / 3-21g                              -75.71038780   CCSD TOTAL ENERGY
  ---------------------------------------------------------------------------------------------------------

   ==> Stages <==

  ---------------------------------------------------------------------------------------------------------
      Stage               Method / Basis                       Wt      Energy [Eh]   Scheme
  ---------------------------------------------------------------------------------------------------------
        scf                   hf / cc-pvtz                      1     -76.04562034   xtpl_highest_1
       corl                  mp2 / cc-pv[dt]z                   1     -76.36748217   corl_xtpl_helgaker_2
       corl                   hf / cc-pv[dt]z                  -1     -76.05777146   corl_xtpl_helgaker_2
      delta              ccsd(t) / 3-21g                        1     -75.71201110   xtpl_highest_1
      delta                  mp2 / 3-21g                       -1     -75.70276289   xtpl_highest_1
  ---------------------------------------------------------------------------------------------------------

   ==> CBS <==

  ---------------------------------------------------------------------------------------------------------
      Stage               Method / Basis                               Energy [Eh]   Scheme
  ---------------------------------------------------------------------------------------------------------
        scf                   hf / cc-pvtz                            -76.04562034   xtpl_highest_1
       corl                  mp2 / cc-pv[dt]z                          -0.30971071   corl_xtpl_helgaker_2
      delta        ccsd(t) - mp2 / 3-21g                               -0.00924820   xtpl_highest_1
      total                  CBS                                      -76.36457925   
  ---------------------------------------------------------------------------------------------------------

  //>>>>>>>>>>>>>>>>>>>>>>>>>>>>>>>>>>>//
  //     CBS Setup: custom function    //
  //<<<<<<<<<<<<<<<<<<<<<<<<<<<<<<<<<<<//

    Naive listing of computations required.
             hf / cc-pvtz                  for  HF TOTAL ENERGY
            mp2 / cc-pvdz                  for  MP2 TOTAL ENERGY
            mp2 / cc-pvtz                  for  MP2 TOTAL ENERGY
             hf / cc-pvdz                  for  HF TOTAL ENERGY
             hf / cc-pvtz                  for  HF TOTAL ENERGY
        ccsd(t) / 3-21g                    for  CCSD(T) TOTAL ENERGY
            mp2 / 3-21g                    for  MP2 TOTAL ENERGY

    Enlightened listing of computations required.
            mp2 / cc-pvdz                  for  MP2 TOTAL ENERGY
            mp2 / cc-pvtz                  for  MP2 TOTAL ENERGY
        ccsd(t) / 3-21g                    for  CCSD(T) TOTAL ENERGY

    Full listing of computations to be obtained (required and bonus).
            mp2 / cc-pvdz                  for  MP2 TOTAL ENERGY
             hf / cc-pvdz                  for  HF TOTAL ENERGY
            mp2 / cc-pvtz                  for  MP2 TOTAL ENERGY
             hf / cc-pvtz                  for  HF TOTAL ENERGY
            mp2 / 3-21g                    for  MP2 TOTAL ENERGY
        ccsd(t) / 3-21g                    for  CCSD(T) TOTAL ENERGY
             hf / 3-21g                    for  HF TOTAL ENERGY
           ccsd / 3-21g                    for  CCSD TOTAL ENERGY

  //>>>>>>>>>>>>>>>>>>>>>>>>>>>>>>>>>>>//
  //   CBS Computation: MP2 / CC-PVDZ  //
  //<<<<<<<<<<<<<<<<<<<<<<<<<<<<<<<<<<<//

    SCF Algorithm Type (re)set to DF.

*** tstart() called on ds1.sherrill.chemistry.gatech.edu
*** at Wed May  4 10:51:20 2016


         ---------------------------------------------------------
                                   SCF
            by Justin Turney, Rob Parrish, and Andy Simmonett
                              RHF Reference
                        1 Threads,    256 MiB Core
         ---------------------------------------------------------

  ==> Geometry <==

    Molecular point group: c2v
    Full point group: C2v

    Geometry (in Angstrom), charge = 0, multiplicity = 1:

       Center              X                  Y                   Z               Mass       
    ------------   -----------------  -----------------  -----------------  -----------------
           O          0.000000000000     0.000000000000    -0.079135765807    15.994914619560
           H          0.000000000000    -0.707106781187     0.627971015380     1.007825032070
           H          0.000000000000     0.707106781187     0.627971015380     1.007825032070

  Running in c2v symmetry.

  Rotational constants: A =     18.83462  B =     16.72674  C =      8.85910 [cm^-1]
  Rotational constants: A = 564647.56322  B = 501455.10273  C = 265589.24470 [MHz]
  Nuclear repulsion =    8.841020130083376

  Charge       = 0
  Multiplicity = 1
  Electrons    = 10
  Nalpha       = 5
  Nbeta        = 5

  ==> Algorithm <==

  SCF Algorithm Type is DF.
  DIIS enabled.
  MOM disabled.
  Fractional occupation disabled.
  Guess Type is CORE.
  Energy threshold   = 1.00e-08
  Density threshold  = 1.00e-08
  Integral threshold = 0.00e+00

  ==> Primary Basis <==

  Basis Set: CC-PVDZ
    Number of shells: 12
    Number of basis function: 24
    Number of Cartesian functions: 25
    Spherical Harmonics?: true
    Max angular momentum: 2

  ==> Pre-Iterations <==

   -------------------------------------------------------
    Irrep   Nso     Nmo     Nalpha   Nbeta   Ndocc  Nsocc
   -------------------------------------------------------
     A1        11      11       0       0       0       0
     A2         2       2       0       0       0       0
     B1         4       4       0       0       0       0
     B2         7       7       0       0       0       0
   -------------------------------------------------------
    Total      24      24       5       5       5       0
   -------------------------------------------------------

  ==> Integral Setup <==

  ==> DFJK: Density-Fitted J/K Matrices <==

    J tasked:                  Yes
    K tasked:                  Yes
    wK tasked:                  No
    OpenMP threads:              1
    Integrals threads:           1
    Memory (MB):               183
    Algorithm:                Core
    Integral Cache:           NONE
    Schwarz Cutoff:          1E-12
    Fitting Condition:       1E-12

   => Auxiliary Basis Set <=

  Basis Set: 
    Number of shells: 42
    Number of basis function: 116
    Number of Cartesian functions: 131
    Spherical Harmonics?: true
    Max angular momentum: 3

  Minimum eigenvalue in the overlap matrix is 3.5753954651E-02.
  Using Symmetric Orthogonalization.
  SCF Guess: Core (One-Electron) Hamiltonian.

  ==> Iterations <==

                           Total Energy        Delta E     RMS |[F,P]|

    Occupation by irrep:
             A1    A2    B1    B2 
    DOCC [     3,    0,    0,    2 ]

   @DF-RHF iter   1:   -68.88875817095949   -6.88888e+01   2.17602e-01 
    Occupation by irrep:
             A1    A2    B1    B2 
    DOCC [     3,    0,    1,    1 ]

   @DF-RHF iter   2:   -69.56135263761537   -6.72594e-01   1.89825e-01 DIIS
   @DF-RHF iter   3:   -75.75708752997532   -6.19573e+00   5.90796e-02 DIIS
   @DF-RHF iter   4:   -75.99467722450763   -2.37590e-01   1.55544e-02 DIIS
   @DF-RHF iter   5:   -76.01640767129885   -2.17304e-02   1.49528e-03 DIIS
   @DF-RHF iter   6:   -76.01670560565464   -2.97934e-04   7.91311e-04 DIIS
   @DF-RHF iter   7:   -76.01675949006608   -5.38844e-05   9.90642e-05 DIIS
   @DF-RHF iter   8:   -76.01676131037303   -1.82031e-06   3.76576e-05 DIIS
   @DF-RHF iter   9:   -76.01676142490633   -1.14533e-07   1.88399e-06 DIIS
   @DF-RHF iter  10:   -76.01676142556711   -6.60776e-10   6.65691e-07 DIIS
   @DF-RHF iter  11:   -76.01676142561190   -4.47926e-11   9.45076e-08 DIIS
   @DF-RHF iter  12:   -76.01676142561354   -1.63425e-12   1.25888e-08 DIIS
   @DF-RHF iter  13:   -76.01676142561359   -5.68434e-14   9.62932e-10 DIIS

  ==> Post-Iterations <==

    Orbital Energies (a.u.)
    -----------------------

    Doubly Occupied:                                                      

       1A1   -20.565316     2A1    -1.327476     1B2    -0.649293  
       3A1    -0.588228     1B1    -0.495620  

    Virtual:                                                              

       4A1     0.174517     2B2     0.250028     3B2     0.723013  
       5A1     0.866107     6A1     1.189054     2B1     1.194266  
       4B2     1.272532     7A1     1.307961     1A2     1.520567  
       3B1     1.584486     8A1     1.852864     5B2     1.970029  
       6B2     2.355546     9A1     2.417493     2A2     3.249113  
       4B1     3.307847    10A1     3.412254    11A1     3.799098  
       7B2     4.148059  

    Final Occupation by Irrep:
             A1    A2    B1    B2 
    DOCC [     3,    0,    1,    1 ]

  Energy converged.

  @DF-RHF Final Energy:   -76.01676142561359

   => Energetics <=

    Nuclear Repulsion Energy =              8.8410201300833755
    One-Electron Energy =                -122.4636976546886018
    Two-Electron Energy =                  37.6059160989916279
    DFT Exchange-Correlation Energy =       0.0000000000000000
    Empirical Dispersion Energy =           0.0000000000000000
    PCM Polarization Energy =               0.0000000000000000
    EFP Energy =                            0.0000000000000000
    Total Energy =                        -76.0167614256135948


  Saving occupied orbitals to File 180.

*** tstop() called on ds1.sherrill.chemistry.gatech.edu at Wed May  4 10:51:20 2016
Module time:
	user time   =       0.06 seconds =       0.00 minutes
	system time =       0.01 seconds =       0.00 minutes
	total time  =          0 seconds =       0.00 minutes
Total time:
	user time   =       0.68 seconds =       0.01 minutes
	system time =       0.27 seconds =       0.00 minutes
	total time  =          1 seconds =       0.02 minutes


Properties will be evaluated at   0.000000,   0.000000,   0.000000 Bohr

Properties computed using the SCF density matrix

  Nuclear Dipole Moment: (a.u.)
     X:     0.0000      Y:     0.0000      Z:     1.1770

  Electronic Dipole Moment: (a.u.)
     X:     0.0000      Y:     0.0000      Z:    -0.2705

  Dipole Moment: (a.u.)
     X:     0.0000      Y:     0.0000      Z:     0.9066     Total:     0.9066

  Dipole Moment: (Debye)
     X:     0.0000      Y:     0.0000      Z:     2.3043     Total:     2.3043


  //>>>>>>>>>>>>>>>>>>>>>>>>>>>>>>>>>>>//
  //               DFMP2               //
  //<<<<<<<<<<<<<<<<<<<<<<<<<<<<<<<<<<<//


*** tstart() called on ds1.sherrill.chemistry.gatech.edu
*** at Wed May  4 10:51:20 2016


*** tstop() called on ds1.sherrill.chemistry.gatech.edu at Wed May  4 10:51:20 2016
Module time:
	user time   =       0.02 seconds =       0.00 minutes
	system time =      -0.00 seconds =      -0.00 minutes
	total time  =          0 seconds =       0.00 minutes
Total time:
	user time   =       0.71 seconds =       0.01 minutes
	system time =       0.27 seconds =       0.00 minutes
	total time  =          1 seconds =       0.02 minutes
	 --------------------------------------------------------
	                          DF-MP2                         
	      2nd-Order Density-Fitted Moller-Plesset Theory     
	              RMP2 Wavefunction,   1 Threads             
	                                                         
	        Rob Parrish, Justin Turney, Andy Simmonett,      
	           Ed Hohenstein, and C. David Sherrill          
	 --------------------------------------------------------

   => Auxiliary Basis Set <=

  Basis Set: 
    Number of shells: 30
    Number of basis function: 84
    Number of Cartesian functions: 96
    Spherical Harmonics?: true
    Max angular momentum: 3

	 --------------------------------------------------------
	                 NBF =    24, NAUX =    84
	 --------------------------------------------------------
	   CLASS    FOCC     OCC    AOCC    AVIR     VIR    FVIR
	   PAIRS       0       5       5      19      19       0
	 --------------------------------------------------------

	-----------------------------------------------------------
	 ==================> DF-MP2 Energies <==================== 
	-----------------------------------------------------------
	 Reference Energy          =     -76.0167614256135948 [Eh]
	 Singles Energy            =      -0.0000000000000001 [Eh]
	 Same-Spin Energy          =      -0.0527406422061233 [Eh]
	 Opposite-Spin Energy      =      -0.1562926850310138 [Eh]
	 Correlation Energy        =      -0.2090333272371371 [Eh]
	 Total Energy              =     -76.2257947528507316 [Eh]
	-----------------------------------------------------------
	 ================> DF-SCS-MP2 Energies <================== 
	-----------------------------------------------------------
	 SCS Same-Spin Scale       =       0.3333333333333333 [-]
	 SCS Opposite-Spin Scale   =       1.2000000000000000 [-]
	 SCS Same-Spin Energy      =      -0.0175802140687078 [Eh]
	 SCS Opposite-Spin Energy  =      -0.1875512220372165 [Eh]
	 SCS Correlation Energy    =      -0.2051314361059243 [Eh]
	 SCS Total Energy          =     -76.2218928617195246 [Eh]
	-----------------------------------------------------------


  //>>>>>>>>>>>>>>>>>>>>>>>>>>>>>>>>>>>//
  //   CBS Computation: MP2 / CC-PVTZ  //
  //<<<<<<<<<<<<<<<<<<<<<<<<<<<<<<<<<<<//

    SCF Algorithm Type (re)set to DF.

*** tstart() called on ds1.sherrill.chemistry.gatech.edu
*** at Wed May  4 10:51:20 2016


         ---------------------------------------------------------
                                   SCF
            by Justin Turney, Rob Parrish, and Andy Simmonett
                              RHF Reference
                        1 Threads,    256 MiB Core
         ---------------------------------------------------------

  ==> Geometry <==

    Molecular point group: c2v
    Full point group: C2v

    Geometry (in Angstrom), charge = 0, multiplicity = 1:

       Center              X                  Y                   Z               Mass       
    ------------   -----------------  -----------------  -----------------  -----------------
           O          0.000000000000     0.000000000000    -0.079135765807    15.994914619560
           H          0.000000000000    -0.707106781187     0.627971015380     1.007825032070
           H          0.000000000000     0.707106781187     0.627971015380     1.007825032070

  Running in c2v symmetry.

  Rotational constants: A =     18.83462  B =     16.72674  C =      8.85910 [cm^-1]
  Rotational constants: A = 564647.56322  B = 501455.10273  C = 265589.24470 [MHz]
  Nuclear repulsion =    8.841020130083376

  Charge       = 0
  Multiplicity = 1
  Electrons    = 10
  Nalpha       = 5
  Nbeta        = 5

  ==> Algorithm <==

  SCF Algorithm Type is DF.
  DIIS enabled.
  MOM disabled.
  Fractional occupation disabled.
  Guess Type is CORE.
  Energy threshold   = 1.00e-08
  Density threshold  = 1.00e-08
  Integral threshold = 0.00e+00

  ==> Primary Basis <==

  Basis Set: CC-PVTZ
    Number of shells: 22
    Number of basis function: 58
    Number of Cartesian functions: 65
    Spherical Harmonics?: true
    Max angular momentum: 3

  ==> Pre-Iterations <==

   -------------------------------------------------------
    Irrep   Nso     Nmo     Nalpha   Nbeta   Ndocc  Nsocc
   -------------------------------------------------------
     A1        23      23       0       0       0       0
     A2         7       7       0       0       0       0
     B1        11      11       0       0       0       0
     B2        17      17       0       0       0       0
   -------------------------------------------------------
    Total      58      58       5       5       5       0
   -------------------------------------------------------

  ==> Integral Setup <==

  ==> DFJK: Density-Fitted J/K Matrices <==

    J tasked:                  Yes
    K tasked:                  Yes
    wK tasked:                  No
    OpenMP threads:              1
    Integrals threads:           1
    Memory (MB):               183
    Algorithm:                Core
    Integral Cache:           NONE
    Schwarz Cutoff:          1E-12
    Fitting Condition:       1E-12

   => Auxiliary Basis Set <=

  Basis Set: 
    Number of shells: 45
    Number of basis function: 139
    Number of Cartesian functions: 166
    Spherical Harmonics?: true
    Max angular momentum: 4

  Minimum eigenvalue in the overlap matrix is 3.0450400003E-03.
  Using Symmetric Orthogonalization.
  SCF Guess: Core (One-Electron) Hamiltonian.

  ==> Iterations <==

                           Total Energy        Delta E     RMS |[F,P]|

    Occupation by irrep:
             A1    A2    B1    B2 
    DOCC [     3,    0,    0,    2 ]

   @DF-RHF iter   1:   -61.28693901213666   -6.12869e+01   2.47306e-01 
    Occupation by irrep:
             A1    A2    B1    B2 
    DOCC [     3,    0,    1,    1 ]

   @DF-RHF iter   2:   -66.13694864380454   -4.85001e+00   9.63831e-02 DIIS
   @DF-RHF iter   3:   -73.45605957859657   -7.31911e+00   9.30744e-02 DIIS
   @DF-RHF iter   4:   -75.57239449231335   -2.11633e+00   3.56414e-02 DIIS
   @DF-RHF iter   5:   -76.04009968206606   -4.67705e-01   2.85470e-03 DIIS
   @DF-RHF iter   6:   -76.04496268540663   -4.86300e-03   1.37453e-03 DIIS
   @DF-RHF iter   7:   -76.04558271767908   -6.20032e-04   2.46016e-04 DIIS
   @DF-RHF iter   8:   -76.04561856063920   -3.58430e-05   3.86699e-05 DIIS
   @DF-RHF iter   9:   -76.04562026482743   -1.70419e-06   7.74488e-06 DIIS
   @DF-RHF iter  10:   -76.04562034050159   -7.56742e-08   1.12986e-06 DIIS
   @DF-RHF iter  11:   -76.04562034174708   -1.24550e-09   3.16954e-07 DIIS
   @DF-RHF iter  12:   -76.04562034179934   -5.22533e-11   4.92939e-08 DIIS
   @DF-RHF iter  13:   -76.04562034180115   -1.81899e-12   5.89731e-09 DIIS

  ==> Post-Iterations <==

    Orbital Energies (a.u.)
    -----------------------

    Doubly Occupied:                                                      

       1A1   -20.569011     2A1    -1.335563     1B2    -0.659218  
       3A1    -0.598294     1B1    -0.506085  

    Virtual:                                                              

       4A1     0.134084     2B2     0.202152     3B2     0.506985  
       5A1     0.610437     6A1     0.672014     7A1     0.748462  
       2B1     0.781357     4B2     0.814896     1A2     0.885465  
       3B1     0.896059     8A1     1.179746     5B2     1.213277  
       6B2     1.466540     9A1     1.532115     2A2     2.018485  
       4B1     2.071019    10A1     2.110133     7B2     2.121866  
      11A1     2.230333    12A1     2.607373     8B2     2.944181  
       5B1     3.221514    13A1     3.375594     9B2     3.663789  
       3A2     3.685107     6B1     3.739022    10B2     3.901646  
      14A1     3.925662     4A2     3.949592     7B1     3.993426  
      11B2     4.013134    15A1     4.106315    16A1     4.247456  
       5A2     4.249160    12B2     4.578409     8B1     4.627852  
      13B2     4.995937    17A1     5.044458    18A1     5.267082  
      14B2     5.469864     9B1     5.977338    19A1     6.531908  
      15B2     6.634714    10B1     6.740066     6A2     6.832219  
      20A1     6.900504    11B1     7.067399     7A2     7.158795  
      21A1     7.292830    22A1     7.417253    16B2     7.743223  
      17B2     8.159610    23A1    12.160527  

    Final Occupation by Irrep:
             A1    A2    B1    B2 
    DOCC [     3,    0,    1,    1 ]

  Energy converged.

  @DF-RHF Final Energy:   -76.04562034180115

   => Energetics <=

    Nuclear Repulsion Energy =              8.8410201300833755
    One-Electron Energy =                -122.4369405115766227
    Two-Electron Energy =                  37.5503000396921038
    DFT Exchange-Correlation Energy =       0.0000000000000000
    Empirical Dispersion Energy =           0.0000000000000000
    PCM Polarization Energy =               0.0000000000000000
    EFP Energy =                            0.0000000000000000
    Total Energy =                        -76.0456203418011398


  Saving occupied orbitals to File 180.

*** tstop() called on ds1.sherrill.chemistry.gatech.edu at Wed May  4 10:51:20 2016
Module time:
	user time   =       0.12 seconds =       0.00 minutes
	system time =       0.01 seconds =       0.00 minutes
	total time  =          0 seconds =       0.00 minutes
Total time:
	user time   =       0.90 seconds =       0.01 minutes
	system time =       0.28 seconds =       0.00 minutes
	total time  =          1 seconds =       0.02 minutes


Properties will be evaluated at   0.000000,   0.000000,   0.000000 Bohr

Properties computed using the SCF density matrix

  Nuclear Dipole Moment: (a.u.)
     X:     0.0000      Y:     0.0000      Z:     1.1770

  Electronic Dipole Moment: (a.u.)
     X:     0.0000      Y:     0.0000      Z:    -0.2801

  Dipole Moment: (a.u.)
     X:     0.0000      Y:     0.0000      Z:     0.8970     Total:     0.8970

  Dipole Moment: (Debye)
     X:     0.0000      Y:     0.0000      Z:     2.2798     Total:     2.2798


  //>>>>>>>>>>>>>>>>>>>>>>>>>>>>>>>>>>>//
  //               DFMP2               //
  //<<<<<<<<<<<<<<<<<<<<<<<<<<<<<<<<<<<//


*** tstart() called on ds1.sherrill.chemistry.gatech.edu
*** at Wed May  4 10:51:20 2016


*** tstop() called on ds1.sherrill.chemistry.gatech.edu at Wed May  4 10:51:20 2016
Module time:
	user time   =       0.02 seconds =       0.00 minutes
	system time =      -0.00 seconds =      -0.00 minutes
	total time  =          0 seconds =       0.00 minutes
Total time:
	user time   =       0.92 seconds =       0.02 minutes
	system time =       0.28 seconds =       0.00 minutes
	total time  =          1 seconds =       0.02 minutes
	 --------------------------------------------------------
	                          DF-MP2                         
	      2nd-Order Density-Fitted Moller-Plesset Theory     
	              RMP2 Wavefunction,   1 Threads             
	                                                         
	        Rob Parrish, Justin Turney, Andy Simmonett,      
	           Ed Hohenstein, and C. David Sherrill          
	 --------------------------------------------------------

   => Auxiliary Basis Set <=

  Basis Set: 
    Number of shells: 43
    Number of basis function: 141
    Number of Cartesian functions: 171
    Spherical Harmonics?: true
    Max angular momentum: 4

	 --------------------------------------------------------
	                 NBF =    58, NAUX =   141
	 --------------------------------------------------------
	   CLASS    FOCC     OCC    AOCC    AVIR     VIR    FVIR
	   PAIRS       0       5       5      53      53       0
	 --------------------------------------------------------

	-----------------------------------------------------------
	 ==================> DF-MP2 Energies <==================== 
	-----------------------------------------------------------
	 Reference Energy          =     -76.0456203418011540 [Eh]
	 Singles Energy            =      -0.0000000000000088 [Eh]
	 Same-Spin Energy          =      -0.0678370767773510 [Eh]
	 Opposite-Spin Energy      =      -0.2120432964807286 [Eh]
	 Correlation Energy        =      -0.2798803732580884 [Eh]
	 Total Energy              =     -76.3255007150592490 [Eh]
	-----------------------------------------------------------
	 ================> DF-SCS-MP2 Energies <================== 
	-----------------------------------------------------------
	 SCS Same-Spin Scale       =       0.3333333333333333 [-]
	 SCS Opposite-Spin Scale   =       1.2000000000000000 [-]
	 SCS Same-Spin Energy      =      -0.0226123589257837 [Eh]
	 SCS Opposite-Spin Energy  =      -0.2544519557768744 [Eh]
	 SCS Correlation Energy    =      -0.2770643147026668 [Eh]
	 SCS Total Energy          =     -76.3226846565038244 [Eh]
	-----------------------------------------------------------


  //>>>>>>>>>>>>>>>>>>>>>>>>>>>>>>>>>>>//
  //  CBS Computation: CCSD(T) / 3-21G //
  //<<<<<<<<<<<<<<<<<<<<<<<<<<<<<<<<<<<//


*** tstart() called on ds1.sherrill.chemistry.gatech.edu
*** at Wed May  4 10:51:20 2016


         ---------------------------------------------------------
                                   SCF
            by Justin Turney, Rob Parrish, and Andy Simmonett
                              RHF Reference
                        1 Threads,    256 MiB Core
         ---------------------------------------------------------

  ==> Geometry <==

    Molecular point group: c2v
    Full point group: C2v

    Geometry (in Angstrom), charge = 0, multiplicity = 1:

       Center              X                  Y                   Z               Mass       
    ------------   -----------------  -----------------  -----------------  -----------------
           O          0.000000000000     0.000000000000    -0.079135765807    15.994914619560
           H          0.000000000000    -0.707106781187     0.627971015380     1.007825032070
           H          0.000000000000     0.707106781187     0.627971015380     1.007825032070

  Running in c2v symmetry.

  Rotational constants: A =     18.83462  B =     16.72674  C =      8.85910 [cm^-1]
  Rotational constants: A = 564647.56322  B = 501455.10273  C = 265589.24470 [MHz]
  Nuclear repulsion =    8.841020130083376

  Charge       = 0
  Multiplicity = 1
  Electrons    = 10
  Nalpha       = 5
  Nbeta        = 5

  ==> Algorithm <==

  SCF Algorithm Type is PK.
  DIIS enabled.
  MOM disabled.
  Fractional occupation disabled.
  Guess Type is CORE.
  Energy threshold   = 1.00e-08
  Density threshold  = 1.00e-08
  Integral threshold = 0.00e+00

  ==> Primary Basis <==

  Basis Set: 3-21G
    Number of shells: 9
    Number of basis function: 13
    Number of Cartesian functions: 13
    Spherical Harmonics?: false
    Max angular momentum: 1

  ==> Pre-Iterations <==

   -------------------------------------------------------
    Irrep   Nso     Nmo     Nalpha   Nbeta   Ndocc  Nsocc
   -------------------------------------------------------
     A1         7       7       0       0       0       0
     A2         0       0       0       0       0       0
     B1         2       2       0       0       0       0
     B2         4       4       0       0       0       0
   -------------------------------------------------------
    Total      13      13       5       5       5       0
   -------------------------------------------------------

  ==> Integral Setup <==

	Batch   1 pq = [       0,      41] index = [             0,861]
  ==> DiskJK: Disk-Based J/K Matrices <==

    J tasked:                  Yes
    K tasked:                  Yes
    wK tasked:                  No
    Memory (MB):               183
    Schwarz Cutoff:          1E-12

  Minimum eigenvalue in the overlap matrix is 1.1381533996E-01.
  Using Symmetric Orthogonalization.
  SCF Guess: Core (One-Electron) Hamiltonian.

  ==> Iterations <==

                        Total Energy        Delta E     RMS |[F,P]|

    Occupation by irrep:
             A1    A2    B1    B2 
    DOCC [     4,    0,    0,    1 ]

   @RHF iter   1:   -65.99695413234473   -6.59970e+01   4.81926e-01 
    Occupation by irrep:
             A1    A2    B1    B2 
    DOCC [     3,    0,    1,    1 ]

   @RHF iter   2:   -71.43242703440048   -5.43547e+00   2.94142e-01 DIIS
   @RHF iter   3:   -75.45351264374868   -4.02109e+00   6.90723e-02 DIIS
   @RHF iter   4:   -75.56887217791011   -1.15360e-01   1.19712e-02 DIIS
   @RHF iter   5:   -75.57517221292329   -6.30004e-03   2.76784e-03 DIIS
   @RHF iter   6:   -75.57546917060949   -2.96958e-04   9.12528e-04 DIIS
   @RHF iter   7:   -75.57551609000987   -4.69194e-05   2.26860e-04 DIIS
   @RHF iter   8:   -75.57551811315668   -2.02315e-06   2.89850e-05 DIIS
   @RHF iter   9:   -75.57551815751719   -4.43605e-08   3.29377e-06 DIIS
   @RHF iter  10:   -75.57551815781979   -3.02592e-10   2.57559e-07 DIIS
   @RHF iter  11:   -75.57551815782374   -3.95062e-12   1.71409e-08 DIIS
   @RHF iter  12:   -75.57551815782368    5.68434e-14   2.72982e-09 DIIS

  ==> Post-Iterations <==

    Orbital Energies (a.u.)
    -----------------------

    Doubly Occupied:                                                      

       1A1   -20.449406     2A1    -1.325898     1B2    -0.638689  
       3A1    -0.561339     1B1    -0.486500  

    Virtual:                                                              

       4A1     0.246568     2B2     0.338289     3B2     1.116169  
       5A1     1.318069     2B1     1.773841     6A1     1.914652  
       4B2     1.985259     7A1     3.104996  

    Final Occupation by Irrep:
             A1    A2    B1    B2 
    DOCC [     3,    0,    1,    1 ]

  Energy converged.

  @RHF Final Energy:   -75.57551815782368

   => Energetics <=

    Nuclear Repulsion Energy =              8.8410201300833755
    One-Electron Energy =                -121.9094150389174445
    Two-Electron Energy =                  37.4928767510103853
    DFT Exchange-Correlation Energy =       0.0000000000000000
    Empirical Dispersion Energy =           0.0000000000000000
    PCM Polarization Energy =               0.0000000000000000
    EFP Energy =                            0.0000000000000000
    Total Energy =                        -75.5755181578236801


  Saving occupied orbitals to File 180.

*** tstop() called on ds1.sherrill.chemistry.gatech.edu at Wed May  4 10:51:20 2016
Module time:
	user time   =       0.02 seconds =       0.00 minutes
	system time =       0.02 seconds =       0.00 minutes
	total time  =          0 seconds =       0.00 minutes
Total time:
	user time   =       1.03 seconds =       0.02 minutes
	system time =       0.30 seconds =       0.01 minutes
	total time  =          1 seconds =       0.02 minutes


Properties will be evaluated at   0.000000,   0.000000,   0.000000 Bohr

Properties computed using the SCF density matrix

  Nuclear Dipole Moment: (a.u.)
     X:     0.0000      Y:     0.0000      Z:     1.1770

  Electronic Dipole Moment: (a.u.)
     X:     0.0000      Y:     0.0000      Z:    -0.1401

  Dipole Moment: (a.u.)
     X:     0.0000      Y:     0.0000      Z:     1.0369     Total:     1.0369

  Dipole Moment: (Debye)
     X:     0.0000      Y:     0.0000      Z:     2.6355     Total:     2.6355


*** tstart() called on ds1.sherrill.chemistry.gatech.edu
*** at Wed May  4 10:51:20 2016


	Wfn Parameters:
	--------------------
	Wavefunction         = CCSD_T
	Number of irreps     = 4
	Number of MOs        = 13
	Number of active MOs = 13
	AO-Basis             = NONE
	Semicanonical        = false
	Reference            = RHF
	Print Level          = 1

	IRREP	# MOs	# FZDC	# DOCC	# SOCC	# VIRT	# FZVR
	-----	-----	------	------	------	------	------
	 A1	   7	    0	    3	    0	    4	    0
	 A2	   0	    0	    0	    0	    0	    0
	 B1	   2	    0	    1	    0	    1	    0
	 B2	   4	    0	    1	    0	    3	    0
	Transforming integrals...
	IWL integrals will be deleted.
	(OO|OO)...
	Presorting SO-basis two-electron integrals.
	Sorting File: SO Ints (nn|nn) nbuckets = 1
	Transforming the one-electron integrals and constructing Fock matrices
	Starting first half-transformation.
	Sorting half-transformed integrals.
	First half integral transformation complete.
	Starting second half-transformation.
	Two-electron integral transformation complete.
	(OO|OV)...
	Starting second half-transformation.
	Two-electron integral transformation complete.
	(OO|VV)...
	Starting second half-transformation.
	Two-electron integral transformation complete.
	(OV|OO)...
	Starting first half-transformation.
	Sorting half-transformed integrals.
	First half integral transformation complete.
	Starting second half-transformation.
	Two-electron integral transformation complete.
	(OV|OV)...
	Starting second half-transformation.
	Two-electron integral transformation complete.
	(OV|VV)...
	Starting second half-transformation.
	Two-electron integral transformation complete.
	(VV|OO)...
	Starting first half-transformation.
	Sorting half-transformed integrals.
	First half integral transformation complete.
	Starting second half-transformation.
	Two-electron integral transformation complete.
	(VV|OV)...
	Starting second half-transformation.
	Two-electron integral transformation complete.
	(VV|VV)...
	Starting second half-transformation.
	Two-electron integral transformation complete.
	Frozen core energy     =      0.00000000000000

	Size of irrep 0 of <ab|cd> integrals:      0.001 (MW) /      0.005 (MB)
	Size of irrep 1 of <ab|cd> integrals:      0.000 (MW) /      0.000 (MB)
	Size of irrep 2 of <ab|cd> integrals:      0.000 (MW) /      0.001 (MB)
	Size of irrep 3 of <ab|cd> integrals:      0.001 (MW) /      0.005 (MB)
	Total:                                     0.001 (MW) /      0.011 (MB)

	Size of irrep 0 of <ia|bc> integrals:      0.000 (MW) /      0.003 (MB)
	Size of irrep 1 of <ia|bc> integrals:      0.000 (MW) /      0.000 (MB)
	Size of irrep 2 of <ia|bc> integrals:      0.000 (MW) /      0.000 (MB)
	Size of irrep 3 of <ia|bc> integrals:      0.000 (MW) /      0.002 (MB)
	Total:                                     0.001 (MW) /      0.006 (MB)

	Size of irrep 0 of tijab amplitudes:       0.000 (MW) /      0.002 (MB)
	Size of irrep 1 of tijab amplitudes:       0.000 (MW) /      0.000 (MB)
	Size of irrep 2 of tijab amplitudes:       0.000 (MW) /      0.000 (MB)
	Size of irrep 3 of tijab amplitudes:       0.000 (MW) /      0.001 (MB)
	Total:                                     0.000 (MW) /      0.004 (MB)

	Nuclear Rep. energy          =      8.84102013008338
	SCF energy                   =    -75.57551815782368
	One-electron energy          =   -121.90941496431061
	Two-electron energy          =     37.49287667640349
	Reference energy             =    -75.57551815782374

*** tstop() called on ds1.sherrill.chemistry.gatech.edu at Wed May  4 10:51:20 2016
Module time:
	user time   =      -0.00 seconds =      -0.00 minutes
	system time =       0.04 seconds =       0.00 minutes
	total time  =          0 seconds =       0.00 minutes
Total time:
	user time   =       1.03 seconds =       0.02 minutes
	system time =       0.34 seconds =       0.01 minutes
	total time  =          1 seconds =       0.02 minutes

*** tstart() called on ds1.sherrill.chemistry.gatech.edu
*** at Wed May  4 10:51:20 2016

            **************************
            *                        *
            *        CCENERGY        *
            *                        *
            **************************

    Nuclear Rep. energy (wfn)     =    8.841020130083376
    SCF energy          (wfn)     =  -75.575518157823680
    Reference energy    (file100) =  -75.575518157823737

    Input parameters:
    -----------------
    Wave function   =     CCSD_T
    Reference wfn   =     RHF
    Brueckner       =     No
    Memory (Mbytes) =     256.0
    Maxiter         =     50
    R_Convergence   =     1.0e-07
    E_Convergence   =     1.0e-06
    Restart         =     Yes
    DIIS            =     Yes
    AO Basis        =     NONE
    ABCD            =     NEW
    Cache Level     =     2
    Cache Type      =     LOW
    Print Level     =     1
    Num. of threads =     1
    # Amps to Print =     10
    Print MP2 Amps? =     No
    Analyze T2 Amps =     No
    Print Pair Ener =     No
    Local CC        =     No
    SCS-MP2         =     False
    SCSN-MP2        =     False
    SCS-CCSD        =     False

MP2 correlation energy -0.1272447367610072
                Solving CC Amplitude Equations
                ------------------------------
  Iter             Energy              RMS        T1Diag      D1Diag    New D1Diag    D2Diag
  ----     ---------------------    ---------   ----------  ----------  ----------   --------
     0        -0.127244736761007    0.000e+00    0.000000    0.000000    0.000000    0.101353
     1        -0.130207088002562    2.878e-02    0.004502    0.010302    0.010302    0.112996
     2        -0.134571732344615    1.151e-02    0.005824    0.012936    0.012936    0.122180
     3        -0.134848170304638    2.339e-03    0.006197    0.013668    0.013668    0.123857
     4        -0.134872079204213    6.299e-04    0.006268    0.014009    0.014009    0.124118
[...]
	 A1	   7	    0	    3	    0	    4	    0
	 A2	   0	    0	    0	    0	    0	    0
	 B1	   2	    0	    1	    0	    1	    0
	 B2	   4	    0	    1	    0	    3	    0
	Transforming integrals...
	IWL integrals will be deleted.
	(OO|OO)...
	Presorting SO-basis two-electron integrals.
	Sorting File: SO Ints (nn|nn) nbuckets = 1
	Transforming the one-electron integrals and constructing Fock matrices
	Starting first half-transformation.
	Sorting half-transformed integrals.
	First half integral transformation complete.
	Starting second half-transformation.
	Two-electron integral transformation complete.
	(OO|OV)...
	Starting second half-transformation.
	Two-electron integral transformation complete.
	(OO|VV)...
	Starting second half-transformation.
	Two-electron integral transformation complete.
	(OV|OO)...
	Starting first half-transformation.
	Sorting half-transformed integrals.
	First half integral transformation complete.
	Starting second half-transformation.
	Two-electron integral transformation complete.
	(OV|OV)...
	Starting second half-transformation.
	Two-electron integral transformation complete.
	(OV|VV)...
	Starting second half-transformation.
	Two-electron integral transformation complete.
	(VV|OO)...
	Starting first half-transformation.
	Sorting half-transformed integrals.
	First half integral transformation complete.
	Starting second half-transformation.
	Two-electron integral transformation complete.
	(VV|OV)...
	Starting second half-transformation.
	Two-electron integral transformation complete.
	(VV|VV)...
	Starting second half-transformation.
	Two-electron integral transformation complete.
	Frozen core energy     =      0.00000000000000

	Size of irrep 0 of <ab|cd> integrals:      0.001 (MW) /      0.005 (MB)
	Size of irrep 1 of <ab|cd> integrals:      0.000 (MW) /      0.000 (MB)
	Size of irrep 2 of <ab|cd> integrals:      0.000 (MW) /      0.001 (MB)
	Size of irrep 3 of <ab|cd> integrals:      0.001 (MW) /      0.005 (MB)
	Total:                                     0.001 (MW) /      0.011 (MB)

	Size of irrep 0 of <ia|bc> integrals:      0.000 (MW) /      0.003 (MB)
	Size of irrep 1 of <ia|bc> integrals:      0.000 (MW) /      0.000 (MB)
	Size of irrep 2 of <ia|bc> integrals:      0.000 (MW) /      0.000 (MB)
	Size of irrep 3 of <ia|bc> integrals:      0.000 (MW) /      0.002 (MB)
	Total:                                     0.001 (MW) /      0.006 (MB)

	Size of irrep 0 of tijab amplitudes:       0.000 (MW) /      0.002 (MB)
	Size of irrep 1 of tijab amplitudes:       0.000 (MW) /      0.000 (MB)
	Size of irrep 2 of tijab amplitudes:       0.000 (MW) /      0.000 (MB)
	Size of irrep 3 of tijab amplitudes:       0.000 (MW) /      0.001 (MB)
	Total:                                     0.000 (MW) /      0.004 (MB)

	Nuclear Rep. energy          =      9.16175459353979
	SCF energy                   =    -75.58526922007698
	One-electron energy          =   -122.57392668366016
	Two-electron energy          =     37.82690287004340
	Reference energy             =    -75.58526922007695

*** tstop() called on ds1.sherrill.chemistry.gatech.edu at Wed May  4 10:53:53 2016
Module time:
	user time   =       0.02 seconds =       0.00 minutes
	system time =       0.21 seconds =       0.00 minutes
	total time  =          0 seconds =       0.00 minutes
Total time:
	user time   =      43.81 seconds =       0.73 minutes
	system time =     106.88 seconds =       1.78 minutes
	total time  =        154 seconds =       2.57 minutes

*** tstart() called on ds1.sherrill.chemistry.gatech.edu
*** at Wed May  4 10:53:53 2016

            **************************
            *                        *
            *        CCENERGY        *
            *                        *
            **************************

    Nuclear Rep. energy (wfn)     =    9.161754593539793
    SCF energy          (wfn)     =  -75.585269220076981
    Reference energy    (file100) =  -75.585269220076952

    Input parameters:
    -----------------
    Wave function   =     CCSD_T
    Reference wfn   =     RHF
    Brueckner       =     No
    Memory (Mbytes) =     256.0
    Maxiter         =     50
    R_Convergence   =     1.0e-07
    E_Convergence   =     1.0e-06
    Restart         =     Yes
    DIIS            =     Yes
    AO Basis        =     NONE
    ABCD            =     NEW
    Cache Level     =     2
    Cache Type      =     LOW
    Print Level     =     1
    Num. of threads =     1
    # Amps to Print =     10
    Print MP2 Amps? =     No
    Analyze T2 Amps =     No
    Print Pair Ener =     No
    Local CC        =     No
    SCS-MP2         =     False
    SCSN-MP2        =     False
    SCS-CCSD        =     False

MP2 correlation energy -0.1227540266304694
                Solving CC Amplitude Equations
                ------------------------------
  Iter             Energy              RMS        T1Diag      D1Diag    New D1Diag    D2Diag
  ----     ---------------------    ---------   ----------  ----------  ----------   --------
     0        -0.122754026630469    0.000e+00    0.000000    0.000000    0.000000    0.094493
     1        -0.126083164446578    2.593e-02    0.003917    0.009124    0.009124    0.104989
     2        -0.129829737620863    9.920e-03    0.005127    0.011339    0.011339    0.112487
     3        -0.130038893952888    1.937e-03    0.005454    0.012367    0.012367    0.113645
     4        -0.130059513995861    5.902e-04    0.005550    0.012800    0.012800    0.113814
     5        -0.130056691881413    1.594e-04    0.005586    0.012960    0.012960    0.113796
     6        -0.130055379681922    3.027e-05    0.005592    0.012987    0.012987    0.113785
     7        -0.130055505191185    7.271e-06    0.005593    0.012994    0.012994    0.113784
     8        -0.130055396801188    1.426e-06    0.005593    0.012994    0.012994    0.113784
     9        -0.130055398075058    3.008e-07    0.005593    0.012994    0.012994    0.113784
    10        -0.130055397954418    4.720e-08    0.005593    0.012994    0.012994    0.113784

    Iterations converged.


    Largest TIA Amplitudes:
              2   0         0.0105649470
              4   7         0.0100565156
              4   5        -0.0055823415
              2   2         0.0051769020
              1   2        -0.0039109006
              2   3        -0.0028844213
              1   3         0.0027824187
              1   0        -0.0023032684
              2   1         0.0016207686
              4   6        -0.0014685123

    Largest TIjAb Amplitudes:
      4   4   5   5        -0.0504795046
      3   3   4   4        -0.0434922930
      2   2   2   2        -0.0338437957
      4   4   6   6        -0.0292121468
      2   4   0   5         0.0268661910
      4   2   5   0         0.0268661910
      2   3   2   4        -0.0263244505
      3   2   4   2        -0.0263244505
      2   2   0   0        -0.0263080487
      4   4   1   1        -0.0248793633

    SCF energy       (wfn)                    =  -75.585269220076981
    Reference energy (file100)                =  -75.585269220076952

    Opposite-spin MP2 correlation energy      =   -0.094913405980941
    Same-spin MP2 correlation energy          =   -0.027840620649528
    MP2 correlation energy                    =   -0.122754026630469
      * MP2 total energy                      =  -75.708023246707427

    Opposite-spin CCSD correlation energy     =   -0.106793682139347
    Same-spin CCSD correlation energy         =   -0.023261715968373
    CCSD correlation energy                   =   -0.130055397954418
      * CCSD total energy                     =  -75.715324618031374


*** tstop() called on ds1.sherrill.chemistry.gatech.edu at Wed May  4 10:53:55 2016
Module time:
	user time   =       0.06 seconds =       0.00 minutes
	system time =       1.65 seconds =       0.03 minutes
	total time  =          2 seconds =       0.03 minutes
Total time:
	user time   =      43.87 seconds =       0.73 minutes
	system time =     108.54 seconds =       1.81 minutes
	total time  =        156 seconds =       2.60 minutes

*** tstart() called on ds1.sherrill.chemistry.gatech.edu
*** at Wed May  4 10:53:55 2016

            **************************
            *                        *
            *        CCTRIPLES       *
            *                        *
            **************************


    Wave function   =    CCSD_T
    Reference wfn   =      RHF

    Nuclear Rep. energy (wfn)                =    9.161754593539793
    SCF energy          (wfn)                =  -75.585269220076981
    Reference energy    (file100)            =  -75.585269220076952
    CCSD energy         (file100)            =   -0.130055397954418
    Total CCSD energy   (file100)            =  -75.715324618031374

    Number of ijk index combinations:               35
    Memory available in words        :        32000000
    ~Words needed per explicit thread:             256
    Number of threads for explicit ijk threading:    1

    (T) energy                                =   -0.001351314418912
      * CCSD(T) total energy                  =  -75.716675932450286


*** tstop() called on ds1.sherrill.chemistry.gatech.edu at Wed May  4 10:53:55 2016
Module time:
	user time   =       0.01 seconds =       0.00 minutes
	system time =       0.15 seconds =       0.00 minutes
	total time  =          0 seconds =       0.00 minutes
Total time:
	user time   =      43.88 seconds =       0.73 minutes
	system time =     108.69 seconds =       1.81 minutes
	total time  =        156 seconds =       2.60 minutes

  //>>>>>>>>>>>>>>>>>>>>>>>>>>>>>>>>>>>//
  //    CBS Results: custom function   //
  //<<<<<<<<<<<<<<<<<<<<<<<<<<<<<<<<<<<//


   ==> HF <==

   HI-zeta (0) Energy:               -76.056809971364


   ==> Helgaker 2-point correlated extrapolation for method: MP2 <==

   LO-zeta (2) Energy:               -76.230869020475
   HI-zeta (3) Energy:               -76.332175099033
   Beta (coefficient) Value:           1.151690156239
   Extrapolated Energy:              -76.374830290005

   @Extrapolated MP2/(D,T):          -76.374830290005



   ==> Helgaker 2-point correlated extrapolation for method: HF <==

   LO-zeta (2) Energy:               -76.026569205683
   HI-zeta (3) Energy:               -76.056809971364
   Beta (coefficient) Value:           0.343789757214
   Extrapolated Energy:              -76.069542925335

   @Extrapolated HF/(D,T):           -76.069542925335


   ==> CCSD(T) <==

   HI-zeta (0) Energy:               -75.716675932450

   ==> MP2 <==

   HI-zeta (0) Energy:               -75.708023246707

   ==> Components <==

  ---------------------------------------------------------------------------------------------------------
                          Method / Basis                      Rqd      Energy [Eh]   Variable
  ---------------------------------------------------------------------------------------------------------
                             mp2 / cc-pvdz                      *     -76.23086902   MP2 TOTAL ENERGY
                              hf / cc-pvdz                      *     -76.02656921   HF TOTAL ENERGY
                             mp2 / cc-pvtz                      *     -76.33217510   MP2 TOTAL ENERGY
                              hf / cc-pvtz                      *     -76.05680997   HF TOTAL ENERGY
                             mp2 / 3-21g                        *     -75.70802325   MP2 TOTAL ENERGY
                         ccsd(t) / 3-21g                        *     -75.71667593   CCSD(T) TOTAL ENERGY
                              hf / 3-21g                              -75.58526922   HF TOTAL ENERGY
                            ccsd / 3-21g                              -75.71532462   CCSD TOTAL ENERGY
  ---------------------------------------------------------------------------------------------------------

   ==> Stages <==

  ---------------------------------------------------------------------------------------------------------
      Stage               Method / Basis                       Wt      Energy [Eh]   Scheme
  ---------------------------------------------------------------------------------------------------------
        scf                   hf / cc-pvtz                      1     -76.05680997   xtpl_highest_1
       corl                  mp2 / cc-pv[dt]z                   1     -76.37483029   corl_xtpl_helgaker_2
       corl                   hf / cc-pv[dt]z                  -1     -76.06954293   corl_xtpl_helgaker_2
      delta              ccsd(t) / 3-21g                        1     -75.71667593   xtpl_highest_1
      delta                  mp2 / 3-21g                       -1     -75.70802325   xtpl_highest_1
  ---------------------------------------------------------------------------------------------------------

   ==> CBS <==

  ---------------------------------------------------------------------------------------------------------
      Stage               Method / Basis                               Energy [Eh]   Scheme
  ---------------------------------------------------------------------------------------------------------
        scf                   hf / cc-pvtz                            -76.05680997   xtpl_highest_1
       corl                  mp2 / cc-pv[dt]z                          -0.30528736   corl_xtpl_helgaker_2
      delta        ccsd(t) - mp2 / 3-21g                               -0.00865269   xtpl_highest_1
      total                  CBS                                      -76.37075002   
  ---------------------------------------------------------------------------------------------------------

-------------------------------------------------------------

  Computing gradient from energies (fd_1_0).
	Using 3-point formula.
	Energy without displacement:  -76.3707500218
	Check energies below for precision!
	Forces are for mass-weighted, symmetry-adapted cartesians (in au).

	 Coord      Energy(-)        Energy(+)        Force
	    0    -76.3707468451   -76.3707468466    -0.0000001553
	    1    -76.3707450839   -76.3707450865    -0.0000002596

	Gradient written.

-------------------------------------------------------------
  Irrep: 1 Size: 3 x 3

                 1                   2                   3

    1     0.00000000000000     0.00000000000000    -0.00000020778949
    2     0.00000000000000    -0.00000018425826     0.00000010389474
    3     0.00000000000000     0.00000018425826     0.00000010389474




			-----------------------------------------
			 OPTKING 2.0: for geometry optimizations 
			  - R.A. King,  Bethel University        
			-----------------------------------------

	Previous internal coordinate definitions found.
	---Fragment 1 Geometry and Gradient---
	 O           0.0000000000        0.0000000000       -0.1259048831
	 H           0.0000000000       -1.4254497375        0.9991009308
	 H           0.0000000000        1.4254497375        0.9991009308
	             0.0000000000        0.0000000000       -0.0000002078
	             0.0000000000       -0.0000001843        0.0000001039
	             0.0000000000        0.0000001843        0.0000001039

	---Fragment 1 Intrafragment Coordinates---
	 - Coordinate -           - BOHR/RAD -       - ANG/DEG -
	 R(1,2)           =         1.815914	       0.960941
	 R(1,3)           =         1.815914	       0.960941
	 B(2,1,3)         =         1.805316	     103.436971

	Current energy   :       -76.3707500218

	Energy change for the previous step:
		Projected    :        -0.0000000001
		Actual       :         0.0000000000

	Performing BFGS update.
	Previous computed or guess Hessian on step 1.
	Denominators (dg)(dq) or (dq)(dq) are very small.
	 Skipping Hessian update for step 5.
	Denominators (dg)(dq) or (dq)(dq) are very small.
	 Skipping Hessian update for step 4.
	Steps to be used in Hessian update: 3 2
	Taking RFO optimization step.
	Going to follow RFO solution 1.
	Using RFO vector 1.
	Norm of target step-size    0.00000
	Projected energy change by RFO approximation:        -0.0000000000

	Back-transformation to cartesian coordinates...
	Successfully converged to displaced geometry.

	--- Internal Coordinate Step in ANG or DEG, aJ/ANG or AJ/DEG ---
	 ---------------------------------------------------------------------------
	   Coordinate                Previous        Force       Change         New 
	   ----------                --------       ------       ------       ------
	    1 R(1,2)          =      0.960941    -0.000002    -0.000000     0.960940
	    2 R(1,3)          =      0.960941    -0.000002    -0.000000     0.960940
	    3 B(2,1,3)        =    103.436971    -0.000000    -0.000012   103.436959
	 ---------------------------------------------------------------------------

  ==> Convergence Check <==

  Measures of convergence in internal coordinates in au.
  Criteria marked as inactive (o), active & met (*), and active & unmet ( ).
  ---------------------------------------------------------------------------------------------
   Step     Total Energy     Delta E     MAX Force     RMS Force      MAX Disp      RMS Disp   
  ---------------------------------------------------------------------------------------------
    Convergence Criteria             o    2.00e-06 *    1.00e-06 *    6.00e-06 *    4.00e-06 *
  ---------------------------------------------------------------------------------------------
      6     -76.37075002    3.20e-12 o    2.09e-07 *    1.74e-07 *    3.96e-07 *    3.45e-07 *  ~
  ---------------------------------------------------------------------------------------------


  **** Optimization is complete! (in 6 steps) ****

  ==> Optimization Summary <==

  Measures of convergence in internal coordinates in au.
  --------------------------------------------------------------------------------------------------------------- ~
   Step         Total Energy             Delta E       MAX Force       RMS Force        MAX Disp        RMS Disp  ~
  --------------------------------------------------------------------------------------------------------------- ~
      1     -76.368122753168    -76.368122753168      0.03201112      0.02629944      0.06651013      0.05713336  ~
      2     -76.370666124641     -0.002543371474      0.00434407      0.00339931      0.03132620      0.01931414  ~
      3     -76.370749280203     -0.000083155562      0.00045669      0.00040517      0.00218213      0.00156426  ~
      4     -76.370750011583     -0.000000731380      0.00006931      0.00005670      0.00014527      0.00012873  ~
      5     -76.370750021780     -0.000000010196      0.00000425      0.00000360      0.00000802      0.00000778  ~
      6     -76.370750021777      0.000000000003      0.00000021      0.00000017      0.00000040      0.00000034  ~
  --------------------------------------------------------------------------------------------------------------- ~

	Writing optimization data to binary file.
	Final energy is    -76.3707500217765
	Final (previous) structure:
	Cartesian Geometry (in Angstrom)
	    O     0.0000000000   0.0000000000  -0.0666259946
	    H     0.0000000000  -0.7543155131   0.5287014416
	    H     0.0000000000   0.7543155131   0.5287014416
	Saving final (previous) structure.
			--------------------------
			 OPTKING Finished Execution 
			--------------------------

    Final optimized geometry and variables:
    Molecular point group: c2v
    Full point group: C2v

    Geometry (in Angstrom), charge = 0, multiplicity = 1:

    O       
    H             1           R
    H             1           R      2           A

    A         =  103.4369713235
    R         =    0.9609405026

	Cleaning optimization helper files.
	[2a] opt(sherrill) energy.........................................PASSED
	[2b] opt(sherrill) bond...........................................PASSED
	[2c] opt(sherrill) angle..........................................PASSED

*** PSI4 exiting successfully. Buy a developer a beer!
