
    -----------------------------------------------------------------------
          Psi4: An Open-Source Ab Initio Electronic Structure Package
                               Psi4 1.1rc3.dev5 

                         Git: Rev {master} 3fbd859 


    R. M. Parrish, L. A. Burns, D. G. A. Smith, A. C. Simmonett,
    A. E. DePrince III, E. G. Hohenstein, U. Bozkaya, A. Yu. Sokolov,
    R. Di Remigio, R. M. Richard, J. F. Gonthier, A. M. James,
    H. R. McAlexander, A. Kumar, M. Saitow, X. Wang, B. P. Pritchard,
    P. Verma, H. F. Schaefer III, K. Patkowski, R. A. King, E. F. Valeev,
    F. A. Evangelista, J. M. Turney, T. D. Crawford, and C. D. Sherrill,
    J. Chem. Theory Comput. in press (2017).
    (doi: 10.1021/acs.jctc.7b00174)

    -----------------------------------------------------------------------


    Psi4 started on: Monday, 15 May 2017 03:34PM

    Process ID:  12247
    PSIDATADIR: /home/psilocaluser/gits/hrw-direct/objdir4/stage/usr/local/psi4/share/psi4
    Memory:     500.0 MiB
    Threads:    1
    
  ==> Input File <==

--------------------------------------------------------------------------
#! optimization with method defined via cbs

# NOTE: gradient calcs accessed through an alias to cbs (e.g., sherrill_gold_standard) aren't matching direct calls to cbs

molecule mol {
O
H 1 R
H 1 R 2 A
}

mol.R = 1.0
mol.A = 90.0

set g_convergence gau_verytight

E1 = energy(cbs, corl_wfn='mp2', corl_basis='cc-pV[DT]Z', delta_wfn='ccsd(t)', delta_basis='3-21g')
E2 = energy(sherrill_gold_standard, scf_basis='cc-pVTZ', corl_basis='cc-pV[DT]Z', delta_basis='3-21g')
compare_values(E1, E2, 5, '[1] Match gold_standard energy')  #TEST

G1 = gradient(cbs, corl_wfn='mp2', corl_basis='cc-pV[DT]Z', delta_wfn='ccsd(t)', delta_basis='3-21g', dertype='energy')
G2 = gradient(sherrill_gold_standard, scf_basis='cc-pVTZ', corl_basis='cc-pV[DT]Z', delta_basis='3-21g')
compare_matrices(G1, G2, 5, '[2] Match gold_standard gradient')  #TEST

# Reset mol geometries
mol.R = 1.0
mol.A = 100.0
E = optimize(cbs, corl_wfn='mp2', corl_basis='cc-pV[DT]Z', delta_wfn='ccsd(t)', delta_basis='3-21g', dertype=0)
compare_values(-76.3707500218, E, 5, '[3a] opt(cbs, sherrill) energy')  #TEST
compare_values(0.960940174888, mol.R, 3, '[3b] opt(cbs, sherrill) bond')  #TEST
compare_values(103.436972667, mol.A, 2, '[3c] opt(cbs, sherrill) angle')  #TEST

# Reset mol geometries
mol.R = 1.0
mol.A = 100.0
E = optimize(sherrill_gold_standard, scf_basis='cc-pVTZ', corl_basis='cc-pV[DT]Z', delta_basis='3-21g')
compare_values(-76.3707500218, E, 5, '[4a] opt(sherrill) energy')  #TEST
compare_values(0.960940174888, mol.R, 3, '[4b] opt(sherrill) bond')  #TEST
compare_values(103.436972667, mol.A, 2, '[4c] opt(sherrill) angle')  #TEST

# Note: with new analytical ccsd(t) gradients, calcs G1 and 3 default  #TEST
#   to sum-of-analytic. Want to compare with custom_func values that are  #TEST
#   always findif, so force findif on grad(cbs and opt(cbs counterparts.  #TEST
--------------------------------------------------------------------------
Setting geometry variable R to 1.000000
Setting geometry variable A to 90.000000

  //>>>>>>>>>>>>>>>>>>>>>>>>>>>>>>>>>>>//
  //     CBS Setup: custom function    //
  //<<<<<<<<<<<<<<<<<<<<<<<<<<<<<<<<<<<//

    Naive listing of computations required.
             hf / cc-pvtz                  for  HF TOTAL ENERGY
            mp2 / cc-pvdz                  for  MP2 TOTAL ENERGY
            mp2 / cc-pvtz                  for  MP2 TOTAL ENERGY
             hf / cc-pvdz                  for  HF TOTAL ENERGY
             hf / cc-pvtz                  for  HF TOTAL ENERGY
        ccsd(t) / 3-21g                    for  CCSD(T) TOTAL ENERGY
            mp2 / 3-21g                    for  MP2 TOTAL ENERGY

    Enlightened listing of computations required.
            mp2 / cc-pvdz                  for  MP2 TOTAL ENERGY
            mp2 / cc-pvtz                  for  MP2 TOTAL ENERGY
        ccsd(t) / 3-21g                    for  CCSD(T) TOTAL ENERGY

    Full listing of computations to be obtained (required and bonus).
            mp2 / cc-pvdz                  for  MP2 TOTAL ENERGY
             hf / cc-pvdz                  for  HF TOTAL ENERGY
            mp2 / cc-pvtz                  for  MP2 TOTAL ENERGY
             hf / cc-pvtz                  for  HF TOTAL ENERGY
            mp2 / 3-21g                    for  MP2 TOTAL ENERGY
        ccsd(t) / 3-21g                    for  CCSD(T) TOTAL ENERGY
             hf / 3-21g                    for  HF TOTAL ENERGY
           ccsd / 3-21g                    for  CCSD TOTAL ENERGY

  //>>>>>>>>>>>>>>>>>>>>>>>>>>>>>>>>>>>//
  //   CBS Computation: MP2 / CC-PVDZ  //
  //<<<<<<<<<<<<<<<<<<<<<<<<<<<<<<<<<<<//

    SCF Algorithm Type (re)set to DF.

*** tstart() called on psinet
*** at Mon May 15 15:34:03 2017

   => Loading Basis Set <=

    Name: CC-PVDZ
    Role: ORBITAL
    Keyword: BASIS
    atoms 1   entry O          line   190 file /home/psilocaluser/gits/hrw-direct/objdir4/stage/usr/local/psi4/share/psi4/basis/cc-pvdz.gbs 
    atoms 2-3 entry H          line    20 file /home/psilocaluser/gits/hrw-direct/objdir4/stage/usr/local/psi4/share/psi4/basis/cc-pvdz.gbs 

    There are an even number of electrons - assuming singlet.
    Specify the multiplicity in the molecule input block.


         ---------------------------------------------------------
                                   SCF
            by Justin Turney, Rob Parrish, and Andy Simmonett
                              RHF Reference
                        1 Threads,    500 MiB Core
         ---------------------------------------------------------

  ==> Geometry <==

    Molecular point group: c2v
    Full point group: C2v

    Geometry (in Angstrom), charge = 0, multiplicity = 1:

       Center              X                  Y                   Z               Mass       
    ------------   -----------------  -----------------  -----------------  -----------------
           O          0.000000000000     0.000000000000    -0.079135765807    15.994914619560
           H          0.000000000000    -0.707106781187     0.627971015380     1.007825032070
           H          0.000000000000     0.707106781187     0.627971015380     1.007825032070

  Running in c2v symmetry.

  Rotational constants: A =     18.83462  B =     16.72674  C =      8.85910 [cm^-1]
  Rotational constants: A = 564647.56322  B = 501455.10273  C = 265589.24470 [MHz]
  Nuclear repulsion =    8.841020130083360

  Charge       = 0
  Multiplicity = 1
  Electrons    = 10
  Nalpha       = 5
  Nbeta        = 5

  ==> Algorithm <==

  SCF Algorithm Type is DF.
  DIIS enabled.
  MOM disabled.
  Fractional occupation disabled.
  Guess Type is SAD.
  Energy threshold   = 1.00e-08
  Density threshold  = 1.00e-08
  Integral threshold = 0.00e+00

  ==> Primary Basis <==

  Basis Set: CC-PVDZ
    Blend: CC-PVDZ
    Number of shells: 12
    Number of basis function: 24
    Number of Cartesian functions: 25
    Spherical Harmonics?: true
    Max angular momentum: 2

   => Loading Basis Set <=

    Name: (CC-PVDZ AUX)
    Role: JKFIT
    Keyword: DF_BASIS_SCF
    atoms 1   entry O          line   220 file /home/psilocaluser/gits/hrw-direct/objdir4/stage/usr/local/psi4/share/psi4/basis/cc-pvdz-jkfit.gbs 
    atoms 2-3 entry H          line    50 file /home/psilocaluser/gits/hrw-direct/objdir4/stage/usr/local/psi4/share/psi4/basis/cc-pvdz-jkfit.gbs 

  ==> Pre-Iterations <==

   -------------------------------------------------------
    Irrep   Nso     Nmo     Nalpha   Nbeta   Ndocc  Nsocc
   -------------------------------------------------------
     A1        11      11       0       0       0       0
     A2         2       2       0       0       0       0
     B1         4       4       0       0       0       0
     B2         7       7       0       0       0       0
   -------------------------------------------------------
    Total      24      24       5       5       5       0
   -------------------------------------------------------

  ==> Integral Setup <==

  ==> DFJK: Density-Fitted J/K Matrices <==

    J tasked:                  Yes
    K tasked:                  Yes
    wK tasked:                  No
    OpenMP threads:              1
    Integrals threads:           1
    Memory (MB):               375
    Algorithm:                Core
    Integral Cache:           NONE
    Schwarz Cutoff:          1E-12
    Fitting Condition:       1E-12

   => Auxiliary Basis Set <=

  Basis Set: (CC-PVDZ AUX)
    Blend: CC-PVDZ-JKFIT
    Number of shells: 42
    Number of basis function: 116
    Number of Cartesian functions: 131
    Spherical Harmonics?: true
    Max angular momentum: 3

  Minimum eigenvalue in the overlap matrix is 3.5753954651E-02.
  Using Symmetric Orthogonalization.

  SCF Guess: Superposition of Atomic Densities via on-the-fly atomic UHF.

  ==> Iterations <==

                           Total Energy        Delta E     RMS |[F,P]|

   @DF-RHF iter   0:   -75.82564486408710   -7.58256e+01   1.14307e-01 
   @DF-RHF iter   1:   -75.98877749326263   -1.63133e-01   1.88579e-02 
   @DF-RHF iter   2:   -76.00987443586430   -2.10969e-02   1.00219e-02 DIIS
   @DF-RHF iter   3:   -76.01655202817066   -6.67759e-03   1.20220e-03 DIIS
   @DF-RHF iter   4:   -76.01673215229368   -1.80124e-04   3.37042e-04 DIIS
   @DF-RHF iter   5:   -76.01675904471067   -2.68924e-05   8.72300e-05 DIIS
   @DF-RHF iter   6:   -76.01676137705599   -2.33235e-06   1.35922e-05 DIIS
   @DF-RHF iter   7:   -76.01676142534198   -4.82860e-08   1.18123e-06 DIIS
   @DF-RHF iter   8:   -76.01676142560378   -2.61792e-10   2.33523e-07 DIIS
   @DF-RHF iter   9:   -76.01676142561475   -1.09708e-11   3.05999e-08 DIIS
   @DF-RHF iter  10:   -76.01676142561489   -1.42109e-13   2.52383e-09 DIIS

  ==> Post-Iterations <==

    Orbital Energies (a.u.)
    -----------------------

    Doubly Occupied:                                                      

       1A1   -20.565316     2A1    -1.327476     1B2    -0.649293  
       3A1    -0.588228     1B1    -0.495620  

    Virtual:                                                              

       4A1     0.174517     2B2     0.250028     3B2     0.723013  
       5A1     0.866107     6A1     1.189054     2B1     1.194266  
       4B2     1.272532     7A1     1.307961     1A2     1.520567  
       3B1     1.584486     8A1     1.852864     5B2     1.970029  
       6B2     2.355546     9A1     2.417493     2A2     3.249113  
       4B1     3.307847    10A1     3.412254    11A1     3.799098  
       7B2     4.148059  

    Final Occupation by Irrep:
             A1    A2    B1    B2 
    DOCC [     3,    0,    1,    1 ]

  Energy converged.

  @DF-RHF Final Energy:   -76.01676142561489

   => Energetics <=

    Nuclear Repulsion Energy =              8.8410201300833595
    One-Electron Energy =                -122.4636976844928853
    Two-Electron Energy =                  37.6059161287946324
    DFT Exchange-Correlation Energy =       0.0000000000000000
    Empirical Dispersion Energy =           0.0000000000000000
    PCM Polarization Energy =               0.0000000000000000
    EFP Energy =                            0.0000000000000000
    Total Energy =                        -76.0167614256148880



Properties will be evaluated at   0.000000,   0.000000,   0.000000 Bohr

Properties computed using the SCF density matrix

  Nuclear Dipole Moment: (a.u.)
     X:     0.0000      Y:     0.0000      Z:     1.1770

  Electronic Dipole Moment: (a.u.)
     X:     0.0000      Y:     0.0000      Z:    -0.2705

  Dipole Moment: (a.u.)
     X:     0.0000      Y:     0.0000      Z:     0.9066     Total:     0.9066

  Dipole Moment: (Debye)
     X:     0.0000      Y:     0.0000      Z:     2.3043     Total:     2.3043


*** tstop() called on psinet at Mon May 15 15:34:04 2017
Module time:
	user time   =       0.44 seconds =       0.01 minutes
	system time =       0.02 seconds =       0.00 minutes
	total time  =          1 seconds =       0.02 minutes
Total time:
	user time   =       0.44 seconds =       0.01 minutes
	system time =       0.02 seconds =       0.00 minutes
	total time  =          1 seconds =       0.02 minutes

*** tstart() called on psinet
*** at Mon May 15 15:34:04 2017


  //>>>>>>>>>>>>>>>>>>>>>>>>>>>>>>>>>>>//
  //               DFMP2               //
  //<<<<<<<<<<<<<<<<<<<<<<<<<<<<<<<<<<<//

   => Loading Basis Set <=

    Name: (CC-PVDZ AUX)
    Role: RIFIT
    Keyword: DF_BASIS_MP2
    atoms 1   entry O          line   234 file /home/psilocaluser/gits/hrw-direct/objdir4/stage/usr/local/psi4/share/psi4/basis/cc-pvdz-ri.gbs 
    atoms 2-3 entry H          line    18 file /home/psilocaluser/gits/hrw-direct/objdir4/stage/usr/local/psi4/share/psi4/basis/cc-pvdz-ri.gbs 

	 --------------------------------------------------------
	                          DF-MP2                         
	      2nd-Order Density-Fitted Moller-Plesset Theory     
	              RMP2 Wavefunction,   1 Threads             
	                                                         
	        Rob Parrish, Justin Turney, Andy Simmonett,      
	           Ed Hohenstein, and C. David Sherrill          
	 --------------------------------------------------------

   => Auxiliary Basis Set <=

  Basis Set: (CC-PVDZ AUX)
    Blend: CC-PVDZ-RI
    Number of shells: 30
    Number of basis function: 84
    Number of Cartesian functions: 96
    Spherical Harmonics?: true
    Max angular momentum: 3

	 --------------------------------------------------------
	                 NBF =    24, NAUX =    84
	 --------------------------------------------------------
	   CLASS    FOCC     OCC    AOCC    AVIR     VIR    FVIR
	   PAIRS       0       5       5      19      19       0
	 --------------------------------------------------------

	-----------------------------------------------------------
	 ==================> DF-MP2 Energies <==================== 
	-----------------------------------------------------------
	 Reference Energy          =     -76.0167614256148880 [Eh]
	 Singles Energy            =      -0.0000000000000001 [Eh]
	 Same-Spin Energy          =      -0.0527406421469079 [Eh]
	 Opposite-Spin Energy      =      -0.1562926849396196 [Eh]
	 Correlation Energy        =      -0.2090333270865276 [Eh]
	 Total Energy              =     -76.2257947527014181 [Eh]
	-----------------------------------------------------------
	 ================> DF-SCS-MP2 Energies <================== 
	-----------------------------------------------------------
	 SCS Same-Spin Scale       =       0.3333333333333333 [-]
	 SCS Opposite-Spin Scale   =       1.2000000000000000 [-]
	 SCS Same-Spin Energy      =      -0.0175802140489693 [Eh]
	 SCS Opposite-Spin Energy  =      -0.1875512219275435 [Eh]
	 SCS Correlation Energy    =      -0.2051314359765129 [Eh]
	 SCS Total Energy          =     -76.2218928615913995 [Eh]
	-----------------------------------------------------------


*** tstop() called on psinet at Mon May 15 15:34:04 2017
Module time:
	user time   =       0.10 seconds =       0.00 minutes
	system time =       0.00 seconds =       0.00 minutes
	total time  =          0 seconds =       0.00 minutes
Total time:
	user time   =       0.54 seconds =       0.01 minutes
	system time =       0.02 seconds =       0.00 minutes
	total time  =          1 seconds =       0.02 minutes

  //>>>>>>>>>>>>>>>>>>>>>>>>>>>>>>>>>>>//
  //   CBS Computation: MP2 / CC-PVTZ  //
  //<<<<<<<<<<<<<<<<<<<<<<<<<<<<<<<<<<<//

    SCF Algorithm Type (re)set to DF.

*** tstart() called on psinet
*** at Mon May 15 15:34:04 2017

   => Loading Basis Set <=

    Name: CC-PVTZ
    Role: ORBITAL
    Keyword: BASIS
    atoms 1   entry O          line   247 file /home/psilocaluser/gits/hrw-direct/objdir4/stage/usr/local/psi4/share/psi4/basis/cc-pvtz.gbs 
    atoms 2-3 entry H          line    20 file /home/psilocaluser/gits/hrw-direct/objdir4/stage/usr/local/psi4/share/psi4/basis/cc-pvtz.gbs 


         ---------------------------------------------------------
                                   SCF
            by Justin Turney, Rob Parrish, and Andy Simmonett
                              RHF Reference
                        1 Threads,    500 MiB Core
         ---------------------------------------------------------

  ==> Geometry <==

    Molecular point group: c2v
    Full point group: C2v

    Geometry (in Angstrom), charge = 0, multiplicity = 1:

       Center              X                  Y                   Z               Mass       
    ------------   -----------------  -----------------  -----------------  -----------------
           O          0.000000000000     0.000000000000    -0.079135765807    15.994914619560
           H          0.000000000000    -0.707106781187     0.627971015380     1.007825032070
           H          0.000000000000     0.707106781187     0.627971015380     1.007825032070

  Running in c2v symmetry.

  Rotational constants: A =     18.83462  B =     16.72674  C =      8.85910 [cm^-1]
  Rotational constants: A = 564647.56322  B = 501455.10273  C = 265589.24470 [MHz]
  Nuclear repulsion =    8.841020130083368

  Charge       = 0
  Multiplicity = 1
  Electrons    = 10
  Nalpha       = 5
  Nbeta        = 5

  ==> Algorithm <==

  SCF Algorithm Type is DF.
  DIIS enabled.
  MOM disabled.
  Fractional occupation disabled.
  Guess Type is SAD.
  Energy threshold   = 1.00e-08
  Density threshold  = 1.00e-08
  Integral threshold = 0.00e+00

  ==> Primary Basis <==

  Basis Set: CC-PVTZ
    Blend: CC-PVTZ
    Number of shells: 22
    Number of basis function: 58
    Number of Cartesian functions: 65
    Spherical Harmonics?: true
    Max angular momentum: 3

   => Loading Basis Set <=

    Name: (CC-PVTZ AUX)
    Role: JKFIT
    Keyword: DF_BASIS_SCF
    atoms 1   entry O          line   228 file /home/psilocaluser/gits/hrw-direct/objdir4/stage/usr/local/psi4/share/psi4/basis/cc-pvtz-jkfit.gbs 
    atoms 2-3 entry H          line    50 file /home/psilocaluser/gits/hrw-direct/objdir4/stage/usr/local/psi4/share/psi4/basis/cc-pvtz-jkfit.gbs 

  ==> Pre-Iterations <==

   -------------------------------------------------------
    Irrep   Nso     Nmo     Nalpha   Nbeta   Ndocc  Nsocc
   -------------------------------------------------------
     A1        23      23       0       0       0       0
     A2         7       7       0       0       0       0
     B1        11      11       0       0       0       0
     B2        17      17       0       0       0       0
   -------------------------------------------------------
    Total      58      58       5       5       5       0
   -------------------------------------------------------

  ==> Integral Setup <==

  ==> DFJK: Density-Fitted J/K Matrices <==

    J tasked:                  Yes
    K tasked:                  Yes
    wK tasked:                  No
    OpenMP threads:              1
    Integrals threads:           1
    Memory (MB):               375
    Algorithm:                Core
    Integral Cache:           NONE
    Schwarz Cutoff:          1E-12
    Fitting Condition:       1E-12

   => Auxiliary Basis Set <=

  Basis Set: (CC-PVTZ AUX)
    Blend: CC-PVTZ-JKFIT
    Number of shells: 45
    Number of basis function: 139
    Number of Cartesian functions: 166
    Spherical Harmonics?: true
    Max angular momentum: 4

  Minimum eigenvalue in the overlap matrix is 3.0450400003E-03.
  Using Symmetric Orthogonalization.

  SCF Guess: Superposition of Atomic Densities via on-the-fly atomic UHF.

  ==> Iterations <==

                           Total Energy        Delta E     RMS |[F,P]|

   @DF-RHF iter   0:   -75.85481917245838   -7.58548e+01   5.09796e-02 
   @DF-RHF iter   1:   -76.01669423053320   -1.61875e-01   8.55897e-03 
   @DF-RHF iter   2:   -76.03729642022570   -2.06022e-02   5.19200e-03 DIIS
   @DF-RHF iter   3:   -76.04550204343489   -8.20562e-03   4.81600e-04 DIIS
   @DF-RHF iter   4:   -76.04560980563082   -1.07762e-04   1.10137e-04 DIIS
   @DF-RHF iter   5:   -76.04561961781091   -9.81218e-06   2.28763e-05 DIIS
   @DF-RHF iter   6:   -76.04562028911808   -6.71307e-07   5.73370e-06 DIIS
   @DF-RHF iter   7:   -76.04562034054037   -5.14223e-08   9.54185e-07 DIIS
   @DF-RHF iter   8:   -76.04562034179929   -1.25893e-09   6.67559e-08 DIIS
   @DF-RHF iter   9:   -76.04562034180265   -3.35376e-12   7.08316e-09 DIIS

  ==> Post-Iterations <==

    Orbital Energies (a.u.)
    -----------------------

    Doubly Occupied:                                                      

       1A1   -20.569011     2A1    -1.335563     1B2    -0.659218  
       3A1    -0.598294     1B1    -0.506085  

    Virtual:                                                              

       4A1     0.134084     2B2     0.202152     3B2     0.506985  
       5A1     0.610437     6A1     0.672014     7A1     0.748462  
       2B1     0.781357     4B2     0.814896     1A2     0.885465  
       3B1     0.896059     8A1     1.179746     5B2     1.213277  
       6B2     1.466540     9A1     1.532115     2A2     2.018485  
       4B1     2.071019    10A1     2.110133     7B2     2.121866  
      11A1     2.230333    12A1     2.607373     8B2     2.944181  
       5B1     3.221514    13A1     3.375594     9B2     3.663789  
       3A2     3.685107     6B1     3.739021    10B2     3.901646  
      14A1     3.925662     4A2     3.949592     7B1     3.993426  
      11B2     4.013134    15A1     4.106315    16A1     4.247456  
       5A2     4.249160    12B2     4.578409     8B1     4.627852  
      13B2     4.995937    17A1     5.044458    18A1     5.267082  
      14B2     5.469864     9B1     5.977338    19A1     6.531908  
      15B2     6.634714    10B1     6.740066     6A2     6.832219  
      20A1     6.900504    11B1     7.067399     7A2     7.158795  
      21A1     7.292830    22A1     7.417252    16B2     7.743223  
      17B2     8.159610    23A1    12.160527  

    Final Occupation by Irrep:
             A1    A2    B1    B2 
    DOCC [     3,    0,    1,    1 ]

  Energy converged.

  @DF-RHF Final Energy:   -76.04562034180265

   => Energetics <=

    Nuclear Repulsion Energy =              8.8410201300833684
    One-Electron Energy =                -122.4369404831447099
    Two-Electron Energy =                  37.5503000112586989
    DFT Exchange-Correlation Energy =       0.0000000000000000
    Empirical Dispersion Energy =           0.0000000000000000
    PCM Polarization Energy =               0.0000000000000000
    EFP Energy =                            0.0000000000000000
    Total Energy =                        -76.0456203418026462



Properties will be evaluated at   0.000000,   0.000000,   0.000000 Bohr

Properties computed using the SCF density matrix

  Nuclear Dipole Moment: (a.u.)
     X:     0.0000      Y:     0.0000      Z:     1.1770

  Electronic Dipole Moment: (a.u.)
     X:     0.0000      Y:     0.0000      Z:    -0.2801

  Dipole Moment: (a.u.)
     X:     0.0000      Y:     0.0000      Z:     0.8970     Total:     0.8970

  Dipole Moment: (Debye)
     X:     0.0000      Y:     0.0000      Z:     2.2798     Total:     2.2798


*** tstop() called on psinet at Mon May 15 15:34:04 2017
Module time:
	user time   =       0.51 seconds =       0.01 minutes
	system time =       0.01 seconds =       0.00 minutes
	total time  =          0 seconds =       0.00 minutes
Total time:
	user time   =       1.06 seconds =       0.02 minutes
	system time =       0.03 seconds =       0.00 minutes
	total time  =          1 seconds =       0.02 minutes

*** tstart() called on psinet
*** at Mon May 15 15:34:04 2017


  //>>>>>>>>>>>>>>>>>>>>>>>>>>>>>>>>>>>//
  //               DFMP2               //
  //<<<<<<<<<<<<<<<<<<<<<<<<<<<<<<<<<<<//

   => Loading Basis Set <=

    Name: (CC-PVTZ AUX)
    Role: RIFIT
    Keyword: DF_BASIS_MP2
    atoms 1   entry O          line   304 file /home/psilocaluser/gits/hrw-direct/objdir4/stage/usr/local/psi4/share/psi4/basis/cc-pvtz-ri.gbs 
    atoms 2-3 entry H          line    18 file /home/psilocaluser/gits/hrw-direct/objdir4/stage/usr/local/psi4/share/psi4/basis/cc-pvtz-ri.gbs 

	 --------------------------------------------------------
	                          DF-MP2                         
	      2nd-Order Density-Fitted Moller-Plesset Theory     
	              RMP2 Wavefunction,   1 Threads             
	                                                         
	        Rob Parrish, Justin Turney, Andy Simmonett,      
	           Ed Hohenstein, and C. David Sherrill          
	 --------------------------------------------------------

   => Auxiliary Basis Set <=

  Basis Set: (CC-PVTZ AUX)
    Blend: CC-PVTZ-RI
    Number of shells: 43
    Number of basis function: 141
    Number of Cartesian functions: 171
    Spherical Harmonics?: true
    Max angular momentum: 4

	 --------------------------------------------------------
	                 NBF =    58, NAUX =   141
	 --------------------------------------------------------
	   CLASS    FOCC     OCC    AOCC    AVIR     VIR    FVIR
	   PAIRS       0       5       5      53      53       0
	 --------------------------------------------------------

	-----------------------------------------------------------
	 ==================> DF-MP2 Energies <==================== 
	-----------------------------------------------------------
	 Reference Energy          =     -76.0456203418026462 [Eh]
	 Singles Energy            =      -0.0000000000000028 [Eh]
	 Same-Spin Energy          =      -0.0678370770635925 [Eh]
	 Opposite-Spin Energy      =      -0.2120432976251289 [Eh]
	 Correlation Energy        =      -0.2798803746887243 [Eh]
	 Total Energy              =     -76.3255007164913764 [Eh]
	-----------------------------------------------------------
	 ================> DF-SCS-MP2 Energies <================== 
	-----------------------------------------------------------
	 SCS Same-Spin Scale       =       0.3333333333333333 [-]
	 SCS Opposite-Spin Scale   =       1.2000000000000000 [-]
	 SCS Same-Spin Energy      =      -0.0226123590211975 [Eh]
	 SCS Opposite-Spin Energy  =      -0.2544519571501547 [Eh]
	 SCS Correlation Energy    =      -0.2770643161713551 [Eh]
	 SCS Total Energy          =     -76.3226846579740084 [Eh]
	-----------------------------------------------------------


*** tstop() called on psinet at Mon May 15 15:34:04 2017
Module time:
	user time   =       0.14 seconds =       0.00 minutes
	system time =       0.00 seconds =       0.00 minutes
	total time  =          0 seconds =       0.00 minutes
Total time:
	user time   =       1.20 seconds =       0.02 minutes
	system time =       0.03 seconds =       0.00 minutes
	total time  =          1 seconds =       0.02 minutes

  //>>>>>>>>>>>>>>>>>>>>>>>>>>>>>>>>>>>//
  //  CBS Computation: CCSD(T) / 3-21G //
  //<<<<<<<<<<<<<<<<<<<<<<<<<<<<<<<<<<<//


*** tstart() called on psinet
*** at Mon May 15 15:34:04 2017

   => Loading Basis Set <=

    Name: 3-21G
    Role: ORBITAL
    Keyword: BASIS
    atoms 1   entry O          line    89 file /home/psilocaluser/gits/hrw-direct/objdir4/stage/usr/local/psi4/share/psi4/basis/3-21g.gbs 
    atoms 2-3 entry H          line    20 file /home/psilocaluser/gits/hrw-direct/objdir4/stage/usr/local/psi4/share/psi4/basis/3-21g.gbs 


         ---------------------------------------------------------
                                   SCF
            by Justin Turney, Rob Parrish, and Andy Simmonett
                              RHF Reference
                        1 Threads,    500 MiB Core
         ---------------------------------------------------------

  ==> Geometry <==

    Molecular point group: c2v
    Full point group: C2v

    Geometry (in Angstrom), charge = 0, multiplicity = 1:

       Center              X                  Y                   Z               Mass       
    ------------   -----------------  -----------------  -----------------  -----------------
           O          0.000000000000     0.000000000000    -0.079135765807    15.994914619560
           H          0.000000000000    -0.707106781187     0.627971015380     1.007825032070
           H          0.000000000000     0.707106781187     0.627971015380     1.007825032070

  Running in c2v symmetry.

  Rotational constants: A =     18.83462  B =     16.72674  C =      8.85910 [cm^-1]
  Rotational constants: A = 564647.56322  B = 501455.10273  C = 265589.24470 [MHz]
  Nuclear repulsion =    8.841020130083370

  Charge       = 0
  Multiplicity = 1
  Electrons    = 10
  Nalpha       = 5
  Nbeta        = 5

  ==> Algorithm <==

  SCF Algorithm Type is PK.
  DIIS enabled.
  MOM disabled.
  Fractional occupation disabled.
  Guess Type is SAD.
  Energy threshold   = 1.00e-08
  Density threshold  = 1.00e-08
  Integral threshold = 0.00e+00

  ==> Primary Basis <==

  Basis Set: 3-21G
    Blend: 3-21G
    Number of shells: 9
    Number of basis function: 13
    Number of Cartesian functions: 13
    Spherical Harmonics?: false
    Max angular momentum: 1

  ==> Pre-Iterations <==

   -------------------------------------------------------
    Irrep   Nso     Nmo     Nalpha   Nbeta   Ndocc  Nsocc
   -------------------------------------------------------
     A1         7       7       0       0       0       0
     A2         0       0       0       0       0       0
     B1         2       2       0       0       0       0
     B2         4       4       0       0       0       0
   -------------------------------------------------------
    Total      13      13       5       5       5       0
   -------------------------------------------------------

  ==> Integral Setup <==

  Using in-core PK algorithm.
   Calculation information:
      Number of atoms:                   3
      Number of AO shells:               9
      Number of primitives:             15
      Number of atomic orbitals:        13
      Number of basis functions:        13

      Integral cutoff                 1.00e-12
      Number of threads:                 1

  Performing in-core PK
  Using 8372 doubles for integral storage.
  We computed 1035 shell quartets total.
  Whereas there are 1035 unique shell quartets.
  ==> DiskJK: Disk-Based J/K Matrices <==

    J tasked:                  Yes
    K tasked:                  Yes
    wK tasked:                  No
    Memory (MB):               375
    Schwarz Cutoff:          1E-12

    OpenMP threads:              1
  Minimum eigenvalue in the overlap matrix is 1.1381533996E-01.
  Using Symmetric Orthogonalization.

  SCF Guess: Superposition of Atomic Densities via on-the-fly atomic UHF.

  ==> Iterations <==

                        Total Energy        Delta E     RMS |[F,P]|

   @RHF iter   0:   -75.60254631067659   -7.56025e+01   1.76342e-01 
   @RHF iter   1:   -75.50845710316851    9.40892e-02   3.98809e-02 
   @RHF iter   2:   -75.56397836253808   -5.55213e-02   2.21160e-02 DIIS
   @RHF iter   3:   -75.57426380348159   -1.02854e-02   3.87254e-03 DIIS
   @RHF iter   4:   -75.57542808567429   -1.16428e-03   9.23777e-04 DIIS
   @RHF iter   5:   -75.57551384971187   -8.57640e-05   2.01446e-04 DIIS
   @RHF iter   6:   -75.57551800992593   -4.16021e-06   3.99644e-05 DIIS
   @RHF iter   7:   -75.57551815774188   -1.47816e-07   1.45350e-06 DIIS
   @RHF iter   8:   -75.57551815782287   -8.09877e-11   1.51787e-07 DIIS
   @RHF iter   9:   -75.57551815782375   -8.81073e-13   1.63998e-08 DIIS
   @RHF iter  10:   -75.57551815782375    0.00000e+00   8.84473e-10 DIIS

  ==> Post-Iterations <==

    Orbital Energies (a.u.)
    -----------------------

    Doubly Occupied:                                                      

       1A1   -20.449406     2A1    -1.325898     1B2    -0.638689  
       3A1    -0.561339     1B1    -0.486500  

    Virtual:                                                              

       4A1     0.246568     2B2     0.338289     3B2     1.116169  
       5A1     1.318069     2B1     1.773841     6A1     1.914652  
       4B2     1.985259     7A1     3.104996  

    Final Occupation by Irrep:
             A1    A2    B1    B2 
    DOCC [     3,    0,    1,    1 ]

  Energy converged.

  @RHF Final Energy:   -75.57551815782375

   => Energetics <=

    Nuclear Repulsion Energy =              8.8410201300833702
    One-Electron Energy =                -121.9094149559440012
    Two-Electron Energy =                  37.4928766680368781
    DFT Exchange-Correlation Energy =       0.0000000000000000
    Empirical Dispersion Energy =           0.0000000000000000
    PCM Polarization Energy =               0.0000000000000000
    EFP Energy =                            0.0000000000000000
    Total Energy =                        -75.5755181578237512



Properties will be evaluated at   0.000000,   0.000000,   0.000000 Bohr

Properties computed using the SCF density matrix

  Nuclear Dipole Moment: (a.u.)
     X:     0.0000      Y:     0.0000      Z:     1.1770

  Electronic Dipole Moment: (a.u.)
     X:     0.0000      Y:     0.0000      Z:    -0.1401

  Dipole Moment: (a.u.)
     X:     0.0000      Y:     0.0000      Z:     1.0369     Total:     1.0369

  Dipole Moment: (Debye)
     X:     0.0000      Y:     0.0000      Z:     2.6355     Total:     2.6355


*** tstop() called on psinet at Mon May 15 15:34:05 2017
Module time:
	user time   =       0.30 seconds =       0.01 minutes
	system time =       0.01 seconds =       0.00 minutes
	total time  =          1 seconds =       0.02 minutes
Total time:
	user time   =       1.51 seconds =       0.03 minutes
	system time =       0.04 seconds =       0.00 minutes
	total time  =          2 seconds =       0.03 minutes
 MINTS: Wrapper to libmints.
   by Justin Turney

   Calculation information:
      Number of threads:                 1
      Number of atoms:                   3
      Number of AO shells:               9
      Number of SO shells:               7
      Number of primitives:             15
      Number of atomic orbitals:        13
      Number of basis functions:        13

      Number of irreps:                  4
      Integral cutoff                 0.00e+00
      Number of functions per irrep: [   7    0    2    4 ]

 OEINTS: Overlap, kinetic, potential, dipole, and quadrupole integrals
         stored in file 35.

      Computing two-electron integrals...done
      Computed 1270 non-zero two-electron integrals.
        Stored in file 33.


*** tstart() called on psinet
*** at Mon May 15 15:34:05 2017


	Wfn Parameters:
	--------------------
	Wavefunction         = CCSD_T
	Number of irreps     = 4
	Number of MOs        = 13
	Number of active MOs = 13
	AO-Basis             = NONE
	Semicanonical        = false
	Reference            = RHF
	Print Level          = 1

	IRREP	# MOs	# FZDC	# DOCC	# SOCC	# VIRT	# FZVR
	-----	-----	------	------	------	------	------
	 A1	   7	    0	    3	    0	    4	    0
	 A2	   0	    0	    0	    0	    0	    0
	 B1	   2	    0	    1	    0	    1	    0
	 B2	   4	    0	    1	    0	    3	    0
	Transforming integrals...
	IWL integrals will be deleted.
	(OO|OO)...
	Presorting SO-basis two-electron integrals.
	Sorting File: SO Ints (nn|nn) nbuckets = 1
	Transforming the one-electron integrals and constructing Fock matrices
	Starting first half-transformation.
	Sorting half-transformed integrals.
	First half integral transformation complete.
	Starting second half-transformation.
	Two-electron integral transformation complete.
	(OO|OV)...
	Starting second half-transformation.
	Two-electron integral transformation complete.
	(OO|VV)...
	Starting second half-transformation.
	Two-electron integral transformation complete.
	(OV|OO)...
	Starting first half-transformation.
	Sorting half-transformed integrals.
	First half integral transformation complete.
	Starting second half-transformation.
	Two-electron integral transformation complete.
	(OV|OV)...
	Starting second half-transformation.
	Two-electron integral transformation complete.
	(OV|VV)...
	Starting second half-transformation.
	Two-electron integral transformation complete.
	(VV|OO)...
	Starting first half-transformation.
	Sorting half-transformed integrals.
	First half integral transformation complete.
	Starting second half-transformation.
	Two-electron integral transformation complete.
	(VV|OV)...
	Starting second half-transformation.
	Two-electron integral transformation complete.
	(VV|VV)...
	Starting second half-transformation.
	Two-electron integral transformation complete.
	Frozen core energy     =      0.00000000000000

	Size of irrep 0 of <ab|cd> integrals:      0.001 (MW) /      0.005 (MB)
	Size of irrep 1 of <ab|cd> integrals:      0.000 (MW) /      0.000 (MB)
	Size of irrep 2 of <ab|cd> integrals:      0.000 (MW) /      0.001 (MB)
	Size of irrep 3 of <ab|cd> integrals:      0.001 (MW) /      0.005 (MB)
	Total:                                     0.001 (MW) /      0.011 (MB)

	Size of irrep 0 of <ia|bc> integrals:      0.000 (MW) /      0.003 (MB)
	Size of irrep 1 of <ia|bc> integrals:      0.000 (MW) /      0.000 (MB)
	Size of irrep 2 of <ia|bc> integrals:      0.000 (MW) /      0.000 (MB)
	Size of irrep 3 of <ia|bc> integrals:      0.000 (MW) /      0.002 (MB)
	Total:                                     0.001 (MW) /      0.006 (MB)

	Size of irrep 0 of tijab amplitudes:       0.000 (MW) /      0.002 (MB)
	Size of irrep 1 of tijab amplitudes:       0.000 (MW) /      0.000 (MB)
	Size of irrep 2 of tijab amplitudes:       0.000 (MW) /      0.000 (MB)
	Size of irrep 3 of tijab amplitudes:       0.000 (MW) /      0.001 (MB)
	Total:                                     0.000 (MW) /      0.004 (MB)

	Nuclear Rep. energy          =      8.84102013008337
	SCF energy                   =    -75.57551815782375
	One-electron energy          =   -121.90941496358609
	Two-electron energy          =     37.49287667567897
	Reference energy             =    -75.57551815782375

*** tstop() called on psinet at Mon May 15 15:34:05 2017
Module time:
	user time   =       0.01 seconds =       0.00 minutes
	system time =       0.03 seconds =       0.00 minutes
	total time  =          0 seconds =       0.00 minutes
Total time:
	user time   =       1.54 seconds =       0.03 minutes
	system time =       0.07 seconds =       0.00 minutes
	total time  =          2 seconds =       0.03 minutes

*** tstart() called on psinet
*** at Mon May 15 15:34:05 2017

            **************************
            *                        *
            *        CCENERGY        *
            *                        *
            **************************

    Nuclear Rep. energy (wfn)     =    8.841020130083370
    SCF energy          (wfn)     =  -75.575518157823751
    Reference energy    (file100) =  -75.575518157823751

    Input parameters:
    -----------------
    Wave function   =     CCSD_T
    Reference wfn   =     RHF
    Brueckner       =     No
    Memory (Mbytes) =     524.3
    Maxiter         =     50
    R_Convergence   =     1.0e-07
    E_Convergence   =     1.0e-06
    Restart         =     Yes
    DIIS            =     Yes
    AO Basis        =     NONE
    ABCD            =     NEW
    Cache Level     =     2
    Cache Type      =     LOW
    Print Level     =     1
    Num. of threads =     1
    # Amps to Print =     10
    Print MP2 Amps? =     No
    Analyze T2 Amps =     No
    Print Pair Ener =     No
    Local CC        =     No
    SCS-MP2         =     False
    SCSN-MP2        =     False
    SCS-CCSD        =     False

MP2 correlation energy -0.1272447366456513
                Solving CC Amplitude Equations
                ------------------------------
  Iter             Energy              RMS        T1Diag      D1Diag    New D1Diag    D2Diag
  ----     ---------------------    ---------   ----------  ----------  ----------   --------
     0        -0.127244736645651    0.000e+00    0.000000    0.000000    0.000000    0.101353
     1        -0.130207088018170    2.878e-02    0.004502    0.010302    0.010302    0.112996
     2        -0.134571732254136    1.151e-02    0.005824    0.012936    0.012936    0.122180
     3        -0.134848170280799    2.339e-03    0.006197    0.013668    0.013668    0.123857
     4        -0.134872079180551    6.299e-04    0.006268    0.014009    0.014009    0.124118
     5        -0.134871213709082    1.646e-04    0.006296    0.014146    0.014146    0.124116
     6        -0.134869473851274    3.624e-05    0.006303    0.014177    0.014177    0.124101
     7        -0.134869774252729    8.459e-06    0.006304    0.014186    0.014186    0.124099
     8        -0.134869642256360    1.889e-06    0.006305    0.014187    0.014187    0.124099
     9        -0.134869639954782    4.778e-07    0.006305    0.014187    0.014187    0.124099
    10        -0.134869639047873    7.264e-08    0.006305    0.014187    0.014187    0.124099

    Iterations converged.


    Largest TIA Amplitudes:
              2   0         0.0116719339
              4   7         0.0113050617
              4   5        -0.0066499453
              2   2         0.0064322917
              1   2        -0.0042534012
              2   3        -0.0036971097
              1   3         0.0029508706
              4   6        -0.0023421179
              1   1         0.0010007836
              2   1         0.0007404787

    Largest TIjAb Amplitudes:
      4   4   5   5        -0.0620603626
      3   3   4   4        -0.0435418277
      2   4   0   5         0.0352974765
      4   2   5   0         0.0352974765
      2   2   0   0        -0.0341255429
      2   2   2   2        -0.0302349866
      4   4   6   6        -0.0284250656
      2   2   5   5        -0.0269871819
      4   4   0   0        -0.0257792151
      4   4   5   6        -0.0249977214

    SCF energy       (wfn)                    =  -75.575518157823751
    Reference energy (file100)                =  -75.575518157823751

    Opposite-spin MP2 correlation energy      =   -0.098646321111949
    Same-spin MP2 correlation energy          =   -0.028598415533702
    MP2 correlation energy                    =   -0.127244736645651
      * MP2 total energy                      =  -75.702762894469402

    Opposite-spin CCSD correlation energy     =   -0.111391588782601
    Same-spin CCSD correlation energy         =   -0.023478050297310
    CCSD correlation energy                   =   -0.134869639047873
      * CCSD total energy                     =  -75.710387796871629


*** tstop() called on psinet at Mon May 15 15:34:05 2017
Module time:
	user time   =       0.06 seconds =       0.00 minutes
	system time =       0.11 seconds =       0.00 minutes
	total time  =          0 seconds =       0.00 minutes
Total time:
	user time   =       1.60 seconds =       0.03 minutes
	system time =       0.18 seconds =       0.00 minutes
	total time  =          2 seconds =       0.03 minutes

*** tstart() called on psinet
*** at Mon May 15 15:34:05 2017

            **************************
            *                        *
            *        CCTRIPLES       *
            *                        *
            **************************


    Wave function   =    CCSD_T
    Reference wfn   =      RHF

    Nuclear Rep. energy (wfn)                =    8.841020130083370
    SCF energy          (wfn)                =  -75.575518157823751
    Reference energy    (file100)            =  -75.575518157823751
    CCSD energy         (file100)            =   -0.134869639047873
    Total CCSD energy   (file100)            =  -75.710387796871629

    Number of ijk index combinations:               35
    Memory available in words        :        65536000
    ~Words needed per explicit thread:             256
    Number of threads for explicit ijk threading:    1

    MKL num_threads set to 1 for explicit threading.

    (T) energy                                =   -0.001623298402347
      * CCSD(T) total energy                  =  -75.712011095273965


*** tstop() called on psinet at Mon May 15 15:34:05 2017
Module time:
	user time   =       0.01 seconds =       0.00 minutes
	system time =       0.02 seconds =       0.00 minutes
	total time  =          0 seconds =       0.00 minutes
Total time:
	user time   =       1.61 seconds =       0.03 minutes
	system time =       0.20 seconds =       0.00 minutes
	total time  =          2 seconds =       0.03 minutes

  //>>>>>>>>>>>>>>>>>>>>>>>>>>>>>>>>>>>//
  //    CBS Results: custom function   //
  //<<<<<<<<<<<<<<<<<<<<<<<<<<<<<<<<<<<//


   ==> HF <==

   HI-zeta (3) Energy:               -76.045620341803


   ==> Helgaker 2-point correlated extrapolation for method: MP2 <==

   LO-zeta (2) Energy:               -76.225794752701
   HI-zeta (3) Energy:               -76.325500716491
   Extrapolated Energy:              -76.367482174929

   @Extrapolated MP2/(D,T):          -76.367482174929



   ==> Helgaker 2-point correlated extrapolation for method: HF <==

   LO-zeta (2) Energy:               -76.016761425615
   HI-zeta (3) Energy:               -76.045620341803
   Extrapolated Energy:              -76.057771464408

   @Extrapolated HF/(D,T):           -76.057771464408


   ==> CCSD(T) <==

   HI-zeta (0) Energy:               -75.712011095274

   ==> MP2 <==

   HI-zeta (0) Energy:               -75.702762894469

   ==> Components <==

  ---------------------------------------------------------------------------------------------------------
                          Method / Basis                      Rqd      Energy [Eh]   Variable
  ---------------------------------------------------------------------------------------------------------
                             mp2 / cc-pvdz                      *     -76.22579475   MP2 TOTAL ENERGY
                              hf / cc-pvdz                      *     -76.01676143   HF TOTAL ENERGY
                             mp2 / cc-pvtz                      *     -76.32550072   MP2 TOTAL ENERGY
                              hf / cc-pvtz                      *     -76.04562034   HF TOTAL ENERGY
                             mp2 / 3-21g                        *     -75.70276289   MP2 TOTAL ENERGY
                         ccsd(t) / 3-21g                        *     -75.71201110   CCSD(T) TOTAL ENERGY
                              hf / 3-21g                              -75.57551816   HF TOTAL ENERGY
                            ccsd / 3-21g                              -75.71038780   CCSD TOTAL ENERGY
  ---------------------------------------------------------------------------------------------------------

   ==> Stages <==

  ---------------------------------------------------------------------------------------------------------
      Stage               Method / Basis                       Wt      Energy [Eh]   Scheme
  ---------------------------------------------------------------------------------------------------------
        scf                   hf / cc-pvtz                      1     -76.04562034   xtpl_highest_1
       corl                  mp2 / cc-pv[dt]z                   1     -76.36748217   corl_xtpl_helgaker_2
       corl                   hf / cc-pv[dt]z                  -1     -76.05777146   corl_xtpl_helgaker_2
      delta              ccsd(t) / 3-21g                        1     -75.71201110   xtpl_highest_1
      delta                  mp2 / 3-21g                       -1     -75.70276289   xtpl_highest_1
  ---------------------------------------------------------------------------------------------------------

   ==> CBS <==

  ---------------------------------------------------------------------------------------------------------
      Stage               Method / Basis                               Energy [Eh]   Scheme
  ---------------------------------------------------------------------------------------------------------
        scf                   hf / cc-pvtz                            -76.04562034   xtpl_highest_1
       corl                  mp2 / cc-pv[dt]z                          -0.30971071   corl_xtpl_helgaker_2
      delta        ccsd(t) - mp2 / 3-21g                               -0.00924820   xtpl_highest_1
      total                  CBS                                      -76.36457925   
  ---------------------------------------------------------------------------------------------------------
   => Loading Basis Set <=

    Name: STO-3G
    Role: ORBITAL
    Keyword: BASIS
    atoms 1   entry O          line    80 file /home/psilocaluser/gits/hrw-direct/objdir4/stage/usr/local/psi4/share/psi4/basis/sto-3g.gbs 
    atoms 2-3 entry H          line    18 file /home/psilocaluser/gits/hrw-direct/objdir4/stage/usr/local/psi4/share/psi4/basis/sto-3g.gbs 


  //>>>>>>>>>>>>>>>>>>>>>>>>>>>>>>>>>>>//
  //     CBS Setup: custom function    //
  //<<<<<<<<<<<<<<<<<<<<<<<<<<<<<<<<<<<//

    Naive listing of computations required.
             hf / cc-pvtz                  for  HF TOTAL ENERGY
            mp2 / cc-pvdz                  for  MP2 TOTAL ENERGY
            mp2 / cc-pvtz                  for  MP2 TOTAL ENERGY
             hf / cc-pvdz                  for  HF TOTAL ENERGY
             hf / cc-pvtz                  for  HF TOTAL ENERGY
        ccsd(t) / 3-21g                    for  CCSD(T) TOTAL ENERGY
            mp2 / 3-21g                    for  MP2 TOTAL ENERGY

    Enlightened listing of computations required.
            mp2 / cc-pvdz                  for  MP2 TOTAL ENERGY
            mp2 / cc-pvtz                  for  MP2 TOTAL ENERGY
        ccsd(t) / 3-21g                    for  CCSD(T) TOTAL ENERGY

    Full listing of computations to be obtained (required and bonus).
            mp2 / cc-pvdz                  for  MP2 TOTAL ENERGY
             hf / cc-pvdz                  for  HF TOTAL ENERGY
            mp2 / cc-pvtz                  for  MP2 TOTAL ENERGY
             hf / cc-pvtz                  for  HF TOTAL ENERGY
            mp2 / 3-21g                    for  MP2 TOTAL ENERGY
        ccsd(t) / 3-21g                    for  CCSD(T) TOTAL ENERGY
             hf / 3-21g                    for  HF TOTAL ENERGY
           ccsd / 3-21g                    for  CCSD TOTAL ENERGY

  //>>>>>>>>>>>>>>>>>>>>>>>>>>>>>>>>>>>//
  //   CBS Computation: MP2 / CC-PVDZ  //
  //<<<<<<<<<<<<<<<<<<<<<<<<<<<<<<<<<<<//

    SCF Algorithm Type (re)set to DF.

*** tstart() called on psinet
*** at Mon May 15 15:34:05 2017

   => Loading Basis Set <=

    Name: CC-PVDZ
    Role: ORBITAL
    Keyword: BASIS
    atoms 1   entry O          line   190 file /home/psilocaluser/gits/hrw-direct/objdir4/stage/usr/local/psi4/share/psi4/basis/cc-pvdz.gbs 
    atoms 2-3 entry H          line    20 file /home/psilocaluser/gits/hrw-direct/objdir4/stage/usr/local/psi4/share/psi4/basis/cc-pvdz.gbs 


         ---------------------------------------------------------
                                   SCF
            by Justin Turney, Rob Parrish, and Andy Simmonett
                              RHF Reference
                        1 Threads,    500 MiB Core
         ---------------------------------------------------------

  ==> Geometry <==

    Molecular point group: c2v
    Full point group: C2v

    Geometry (in Angstrom), charge = 0, multiplicity = 1:

       Center              X                  Y                   Z               Mass       
    ------------   -----------------  -----------------  -----------------  -----------------
           O          0.000000000000     0.000000000000    -0.079135765807    15.994914619560
           H          0.000000000000    -0.707106781187     0.627971015380     1.007825032070
           H          0.000000000000     0.707106781187     0.627971015380     1.007825032070

  Running in c2v symmetry.

  Rotational constants: A =     18.83462  B =     16.72674  C =      8.85910 [cm^-1]
  Rotational constants: A = 564647.56322  B = 501455.10273  C = 265589.24470 [MHz]
  Nuclear repulsion =    8.841020130083374

  Charge       = 0
  Multiplicity = 1
  Electrons    = 10
  Nalpha       = 5
  Nbeta        = 5

  ==> Algorithm <==

  SCF Algorithm Type is DF.
  DIIS enabled.
  MOM disabled.
  Fractional occupation disabled.
  Guess Type is SAD.
  Energy threshold   = 1.00e-08
  Density threshold  = 1.00e-08
  Integral threshold = 0.00e+00

  ==> Primary Basis <==

  Basis Set: CC-PVDZ
    Blend: CC-PVDZ
    Number of shells: 12
    Number of basis function: 24
    Number of Cartesian functions: 25
    Spherical Harmonics?: true
    Max angular momentum: 2

   => Loading Basis Set <=

    Name: (CC-PVDZ AUX)
    Role: JKFIT
    Keyword: DF_BASIS_SCF
    atoms 1   entry O          line   220 file /home/psilocaluser/gits/hrw-direct/objdir4/stage/usr/local/psi4/share/psi4/basis/cc-pvdz-jkfit.gbs 
    atoms 2-3 entry H          line    50 file /home/psilocaluser/gits/hrw-direct/objdir4/stage/usr/local/psi4/share/psi4/basis/cc-pvdz-jkfit.gbs 

  ==> Pre-Iterations <==

   -------------------------------------------------------
    Irrep   Nso     Nmo     Nalpha   Nbeta   Ndocc  Nsocc
   -------------------------------------------------------
     A1        11      11       0       0       0       0
     A2         2       2       0       0       0       0
     B1         4       4       0       0       0       0
     B2         7       7       0       0       0       0
   -------------------------------------------------------
    Total      24      24       5       5       5       0
   -------------------------------------------------------

  ==> Integral Setup <==

  ==> DFJK: Density-Fitted J/K Matrices <==

    J tasked:                  Yes
    K tasked:                  Yes
    wK tasked:                  No
    OpenMP threads:              1
    Integrals threads:           1
    Memory (MB):               375
    Algorithm:                Core
    Integral Cache:           NONE
    Schwarz Cutoff:          1E-12
    Fitting Condition:       1E-12

   => Auxiliary Basis Set <=

  Basis Set: (CC-PVDZ AUX)
    Blend: CC-PVDZ-JKFIT
    Number of shells: 42
    Number of basis function: 116
    Number of Cartesian functions: 131
    Spherical Harmonics?: true
    Max angular momentum: 3

  Minimum eigenvalue in the overlap matrix is 3.5753954651E-02.
  Using Symmetric Orthogonalization.

  SCF Guess: Superposition of Atomic Densities via on-the-fly atomic UHF.

  ==> Iterations <==

                           Total Energy        Delta E     RMS |[F,P]|

   @DF-RHF iter   0:   -75.82564486408802   -7.58256e+01   1.14307e-01 
   @DF-RHF iter   1:   -75.98877749326354   -1.63133e-01   1.88579e-02 
   @DF-RHF iter   2:   -76.00987443586524   -2.10969e-02   1.00219e-02 DIIS
   @DF-RHF iter   3:   -76.01655202817163   -6.67759e-03   1.20220e-03 DIIS
   @DF-RHF iter   4:   -76.01673215229461   -1.80124e-04   3.37042e-04 DIIS
   @DF-RHF iter   5:   -76.01675904471159   -2.68924e-05   8.72300e-05 DIIS
   @DF-RHF iter   6:   -76.01676137705701   -2.33235e-06   1.35922e-05 DIIS
   @DF-RHF iter   7:   -76.01676142534289   -4.82859e-08   1.18123e-06 DIIS
   @DF-RHF iter   8:   -76.01676142560474   -2.61849e-10   2.33523e-07 DIIS
   @DF-RHF iter   9:   -76.01676142561564   -1.08997e-11   3.05999e-08 DIIS
   @DF-RHF iter  10:   -76.01676142561584   -1.98952e-13   2.52383e-09 DIIS

  ==> Post-Iterations <==

    Orbital Energies (a.u.)
    -----------------------

    Doubly Occupied:                                                      

       1A1   -20.565316     2A1    -1.327476     1B2    -0.649293  
       3A1    -0.588228     1B1    -0.495620  

    Virtual:                                                              

       4A1     0.174517     2B2     0.250028     3B2     0.723013  
       5A1     0.866107     6A1     1.189054     2B1     1.194266  
       4B2     1.272532     7A1     1.307961     1A2     1.520567  
       3B1     1.584486     8A1     1.852864     5B2     1.970029  
       6B2     2.355546     9A1     2.417493     2A2     3.249113  
       4B1     3.307847    10A1     3.412254    11A1     3.799098  
       7B2     4.148059  

    Final Occupation by Irrep:
             A1    A2    B1    B2 
    DOCC [     3,    0,    1,    1 ]

  Energy converged.

  @DF-RHF Final Energy:   -76.01676142561584

   => Energetics <=

    Nuclear Repulsion Energy =              8.8410201300833737
    One-Electron Energy =                -122.4636976844924305
    Two-Electron Energy =                  37.6059161287932113
    DFT Exchange-Correlation Energy =       0.0000000000000000
    Empirical Dispersion Energy =           0.0000000000000000
    PCM Polarization Energy =               0.0000000000000000
    EFP Energy =                            0.0000000000000000
    Total Energy =                        -76.0167614256158402



Properties will be evaluated at   0.000000,   0.000000,   0.000000 Bohr

Properties computed using the SCF density matrix

  Nuclear Dipole Moment: (a.u.)
     X:     0.0000      Y:     0.0000      Z:     1.1770

  Electronic Dipole Moment: (a.u.)
     X:     0.0000      Y:     0.0000      Z:    -0.2705

  Dipole Moment: (a.u.)
     X:     0.0000      Y:     0.0000      Z:     0.9066     Total:     0.9066

  Dipole Moment: (Debye)
     X:     0.0000      Y:     0.0000      Z:     2.3043     Total:     2.3043


*** tstop() called on psinet at Mon May 15 15:34:06 2017
Module time:
	user time   =       0.42 seconds =       0.01 minutes
	system time =       0.02 seconds =       0.00 minutes
	total time  =          1 seconds =       0.02 minutes
Total time:
	user time   =       2.20 seconds =       0.04 minutes
	system time =       0.22 seconds =       0.00 minutes
	total time  =          3 seconds =       0.05 minutes

*** tstart() called on psinet
*** at Mon May 15 15:34:06 2017


  //>>>>>>>>>>>>>>>>>>>>>>>>>>>>>>>>>>>//
  //               DFMP2               //
  //<<<<<<<<<<<<<<<<<<<<<<<<<<<<<<<<<<<//

   => Loading Basis Set <=

    Name: (CC-PVDZ AUX)
    Role: RIFIT
    Keyword: DF_BASIS_MP2
    atoms 1   entry O          line   234 file /home/psilocaluser/gits/hrw-direct/objdir4/stage/usr/local/psi4/share/psi4/basis/cc-pvdz-ri.gbs 
    atoms 2-3 entry H          line    18 file /home/psilocaluser/gits/hrw-direct/objdir4/stage/usr/local/psi4/share/psi4/basis/cc-pvdz-ri.gbs 

	 --------------------------------------------------------
	                          DF-MP2                         
	      2nd-Order Density-Fitted Moller-Plesset Theory     
	              RMP2 Wavefunction,   1 Threads             
	                                                         
	        Rob Parrish, Justin Turney, Andy Simmonett,      
	           Ed Hohenstein, and C. David Sherrill          
	 --------------------------------------------------------

   => Auxiliary Basis Set <=

  Basis Set: (CC-PVDZ AUX)
    Blend: CC-PVDZ-RI
    Number of shells: 30
    Number of basis function: 84
    Number of Cartesian functions: 96
    Spherical Harmonics?: true
    Max angular momentum: 3

	 --------------------------------------------------------
	                 NBF =    24, NAUX =    84
	 --------------------------------------------------------
	   CLASS    FOCC     OCC    AOCC    AVIR     VIR    FVIR
	   PAIRS       0       5       5      19      19       0
	 --------------------------------------------------------

	-----------------------------------------------------------
	 ==================> DF-MP2 Energies <==================== 
	-----------------------------------------------------------
	 Reference Energy          =     -76.0167614256158402 [Eh]
	 Singles Energy            =      -0.0000000000000001 [Eh]
	 Same-Spin Energy          =      -0.0527406421469091 [Eh]
	 Opposite-Spin Energy      =      -0.1562926849396198 [Eh]
	 Correlation Energy        =      -0.2090333270865290 [Eh]
	 Total Energy              =     -76.2257947527023703 [Eh]
	-----------------------------------------------------------
	 ================> DF-SCS-MP2 Energies <================== 
	-----------------------------------------------------------
	 SCS Same-Spin Scale       =       0.3333333333333333 [-]
	 SCS Opposite-Spin Scale   =       1.2000000000000000 [-]
	 SCS Same-Spin Energy      =      -0.0175802140489697 [Eh]
	 SCS Opposite-Spin Energy  =      -0.1875512219275437 [Eh]
	 SCS Correlation Energy    =      -0.2051314359765135 [Eh]
	 SCS Total Energy          =     -76.2218928615923517 [Eh]
	-----------------------------------------------------------


*** tstop() called on psinet at Mon May 15 15:34:06 2017
Module time:
	user time   =       0.10 seconds =       0.00 minutes
	system time =       0.00 seconds =       0.00 minutes
	total time  =          0 seconds =       0.00 minutes
Total time:
	user time   =       2.30 seconds =       0.04 minutes
	system time =       0.22 seconds =       0.00 minutes
	total time  =          3 seconds =       0.05 minutes

  //>>>>>>>>>>>>>>>>>>>>>>>>>>>>>>>>>>>//
  //   CBS Computation: MP2 / CC-PVTZ  //
  //<<<<<<<<<<<<<<<<<<<<<<<<<<<<<<<<<<<//

    SCF Algorithm Type (re)set to DF.

*** tstart() called on psinet
*** at Mon May 15 15:34:06 2017

   => Loading Basis Set <=

    Name: CC-PVTZ
    Role: ORBITAL
    Keyword: BASIS
    atoms 1   entry O          line   247 file /home/psilocaluser/gits/hrw-direct/objdir4/stage/usr/local/psi4/share/psi4/basis/cc-pvtz.gbs 
    atoms 2-3 entry H          line    20 file /home/psilocaluser/gits/hrw-direct/objdir4/stage/usr/local/psi4/share/psi4/basis/cc-pvtz.gbs 


         ---------------------------------------------------------
                                   SCF
            by Justin Turney, Rob Parrish, and Andy Simmonett
                              RHF Reference
                        1 Threads,    500 MiB Core
         ---------------------------------------------------------

  ==> Geometry <==

    Molecular point group: c2v
    Full point group: C2v

    Geometry (in Angstrom), charge = 0, multiplicity = 1:

       Center              X                  Y                   Z               Mass       
    ------------   -----------------  -----------------  -----------------  -----------------
           O          0.000000000000     0.000000000000    -0.079135765807    15.994914619560
           H          0.000000000000    -0.707106781187     0.627971015380     1.007825032070
           H          0.000000000000     0.707106781187     0.627971015380     1.007825032070

  Running in c2v symmetry.

  Rotational constants: A =     18.83462  B =     16.72674  C =      8.85910 [cm^-1]
  Rotational constants: A = 564647.56322  B = 501455.10273  C = 265589.24470 [MHz]
  Nuclear repulsion =    8.841020130083372

  Charge       = 0
  Multiplicity = 1
  Electrons    = 10
  Nalpha       = 5
  Nbeta        = 5

  ==> Algorithm <==

  SCF Algorithm Type is DF.
  DIIS enabled.
  MOM disabled.
  Fractional occupation disabled.
  Guess Type is SAD.
  Energy threshold   = 1.00e-08
  Density threshold  = 1.00e-08
  Integral threshold = 0.00e+00

  ==> Primary Basis <==

  Basis Set: CC-PVTZ
    Blend: CC-PVTZ
    Number of shells: 22
    Number of basis function: 58
    Number of Cartesian functions: 65
    Spherical Harmonics?: true
    Max angular momentum: 3

   => Loading Basis Set <=

    Name: (CC-PVTZ AUX)
    Role: JKFIT
    Keyword: DF_BASIS_SCF
    atoms 1   entry O          line   228 file /home/psilocaluser/gits/hrw-direct/objdir4/stage/usr/local/psi4/share/psi4/basis/cc-pvtz-jkfit.gbs 
    atoms 2-3 entry H          line    50 file /home/psilocaluser/gits/hrw-direct/objdir4/stage/usr/local/psi4/share/psi4/basis/cc-pvtz-jkfit.gbs 

  ==> Pre-Iterations <==

   -------------------------------------------------------
    Irrep   Nso     Nmo     Nalpha   Nbeta   Ndocc  Nsocc
   -------------------------------------------------------
     A1        23      23       0       0       0       0
     A2         7       7       0       0       0       0
     B1        11      11       0       0       0       0
     B2        17      17       0       0       0       0
   -------------------------------------------------------
    Total      58      58       5       5       5       0
   -------------------------------------------------------

  ==> Integral Setup <==

  ==> DFJK: Density-Fitted J/K Matrices <==

    J tasked:                  Yes
    K tasked:                  Yes
    wK tasked:                  No
    OpenMP threads:              1
    Integrals threads:           1
    Memory (MB):               375
    Algorithm:                Core
    Integral Cache:           NONE
    Schwarz Cutoff:          1E-12
    Fitting Condition:       1E-12

   => Auxiliary Basis Set <=

  Basis Set: (CC-PVTZ AUX)
    Blend: CC-PVTZ-JKFIT
    Number of shells: 45
    Number of basis function: 139
    Number of Cartesian functions: 166
    Spherical Harmonics?: true
    Max angular momentum: 4

  Minimum eigenvalue in the overlap matrix is 3.0450400003E-03.
  Using Symmetric Orthogonalization.

  SCF Guess: Superposition of Atomic Densities via on-the-fly atomic UHF.

  ==> Iterations <==

                           Total Energy        Delta E     RMS |[F,P]|

   @DF-RHF iter   0:   -75.85481917245792   -7.58548e+01   5.09796e-02 
   @DF-RHF iter   1:   -76.01669423053272   -1.61875e-01   8.55897e-03 
   @DF-RHF iter   2:   -76.03729642022512   -2.06022e-02   5.19200e-03 DIIS
   @DF-RHF iter   3:   -76.04550204343424   -8.20562e-03   4.81600e-04 DIIS
   @DF-RHF iter   4:   -76.04560980563033   -1.07762e-04   1.10137e-04 DIIS
   @DF-RHF iter   5:   -76.04561961781036   -9.81218e-06   2.28763e-05 DIIS
   @DF-RHF iter   6:   -76.04562028911755   -6.71307e-07   5.73370e-06 DIIS
   @DF-RHF iter   7:   -76.04562034053976   -5.14222e-08   9.54185e-07 DIIS
   @DF-RHF iter   8:   -76.04562034179872   -1.25897e-09   6.67559e-08 DIIS
   @DF-RHF iter   9:   -76.04562034180202   -3.29692e-12   7.08316e-09 DIIS

  ==> Post-Iterations <==

    Orbital Energies (a.u.)
    -----------------------

    Doubly Occupied:                                                      

       1A1   -20.569011     2A1    -1.335563     1B2    -0.659218  
       3A1    -0.598294     1B1    -0.506085  

    Virtual:                                                              

       4A1     0.134084     2B2     0.202152     3B2     0.506985  
       5A1     0.610437     6A1     0.672014     7A1     0.748462  
       2B1     0.781357     4B2     0.814896     1A2     0.885465  
       3B1     0.896059     8A1     1.179746     5B2     1.213277  
       6B2     1.466540     9A1     1.532115     2A2     2.018485  
       4B1     2.071019    10A1     2.110133     7B2     2.121866  
      11A1     2.230333    12A1     2.607373     8B2     2.944181  
       5B1     3.221514    13A1     3.375594     9B2     3.663789  
       3A2     3.685107     6B1     3.739021    10B2     3.901646  
      14A1     3.925662     4A2     3.949592     7B1     3.993426  
      11B2     4.013134    15A1     4.106315    16A1     4.247456  
       5A2     4.249160    12B2     4.578409     8B1     4.627852  
      13B2     4.995937    17A1     5.044458    18A1     5.267082  
      14B2     5.469864     9B1     5.977338    19A1     6.531908  
      15B2     6.634714    10B1     6.740066     6A2     6.832219  
      20A1     6.900504    11B1     7.067399     7A2     7.158795  
      21A1     7.292830    22A1     7.417252    16B2     7.743223  
      17B2     8.159610    23A1    12.160527  

    Final Occupation by Irrep:
             A1    A2    B1    B2 
    DOCC [     3,    0,    1,    1 ]

  Energy converged.

  @DF-RHF Final Energy:   -76.04562034180202

   => Energetics <=

    Nuclear Repulsion Energy =              8.8410201300833720
    One-Electron Energy =                -122.4369404831448662
    Two-Electron Energy =                  37.5503000112594663
    DFT Exchange-Correlation Energy =       0.0000000000000000
    Empirical Dispersion Energy =           0.0000000000000000
    PCM Polarization Energy =               0.0000000000000000
    EFP Energy =                            0.0000000000000000
    Total Energy =                        -76.0456203418020351



Properties will be evaluated at   0.000000,   0.000000,   0.000000 Bohr

Properties computed using the SCF density matrix

  Nuclear Dipole Moment: (a.u.)
     X:     0.0000      Y:    -0.0000      Z:     1.1770

  Electronic Dipole Moment: (a.u.)
     X:     0.0000      Y:     0.0000      Z:    -0.2801

  Dipole Moment: (a.u.)
     X:     0.0000      Y:    -0.0000      Z:     0.8970     Total:     0.8970

  Dipole Moment: (Debye)
     X:     0.0000      Y:    -0.0000      Z:     2.2798     Total:     2.2798


*** tstop() called on psinet at Mon May 15 15:34:06 2017
Module time:
	user time   =       0.53 seconds =       0.01 minutes
	system time =       0.01 seconds =       0.00 minutes
	total time  =          0 seconds =       0.00 minutes
Total time:
	user time   =       2.84 seconds =       0.05 minutes
	system time =       0.23 seconds =       0.00 minutes
	total time  =          3 seconds =       0.05 minutes

*** tstart() called on psinet
*** at Mon May 15 15:34:06 2017


  //>>>>>>>>>>>>>>>>>>>>>>>>>>>>>>>>>>>//
  //               DFMP2               //
  //<<<<<<<<<<<<<<<<<<<<<<<<<<<<<<<<<<<//

   => Loading Basis Set <=

    Name: (CC-PVTZ AUX)
    Role: RIFIT
    Keyword: DF_BASIS_MP2
    atoms 1   entry O          line   304 file /home/psilocaluser/gits/hrw-direct/objdir4/stage/usr/local/psi4/share/psi4/basis/cc-pvtz-ri.gbs 
    atoms 2-3 entry H          line    18 file /home/psilocaluser/gits/hrw-direct/objdir4/stage/usr/local/psi4/share/psi4/basis/cc-pvtz-ri.gbs 

	 --------------------------------------------------------
	                          DF-MP2                         
	      2nd-Order Density-Fitted Moller-Plesset Theory     
	              RMP2 Wavefunction,   1 Threads             
	                                                         
	        Rob Parrish, Justin Turney, Andy Simmonett,      
	           Ed Hohenstein, and C. David Sherrill          
	 --------------------------------------------------------

   => Auxiliary Basis Set <=

  Basis Set: (CC-PVTZ AUX)
    Blend: CC-PVTZ-RI
    Number of shells: 43
    Number of basis function: 141
    Number of Cartesian functions: 171
    Spherical Harmonics?: true
    Max angular momentum: 4

	 --------------------------------------------------------
	                 NBF =    58, NAUX =   141
	 --------------------------------------------------------
	   CLASS    FOCC     OCC    AOCC    AVIR     VIR    FVIR
	   PAIRS       0       5       5      53      53       0
	 --------------------------------------------------------

	-----------------------------------------------------------
	 ==================> DF-MP2 Energies <==================== 
	-----------------------------------------------------------
	 Reference Energy          =     -76.0456203418020209 [Eh]
	 Singles Energy            =      -0.0000000000000028 [Eh]
	 Same-Spin Energy          =      -0.0678370770635994 [Eh]
	 Opposite-Spin Energy      =      -0.2120432976251456 [Eh]
	 Correlation Energy        =      -0.2798803746887478 [Eh]
	 Total Energy              =     -76.3255007164907653 [Eh]
	-----------------------------------------------------------
	 ================> DF-SCS-MP2 Energies <================== 
	-----------------------------------------------------------
	 SCS Same-Spin Scale       =       0.3333333333333333 [-]
	 SCS Opposite-Spin Scale   =       1.2000000000000000 [-]
	 SCS Same-Spin Energy      =      -0.0226123590211998 [Eh]
	 SCS Opposite-Spin Energy  =      -0.2544519571501747 [Eh]
	 SCS Correlation Energy    =      -0.2770643161713773 [Eh]
	 SCS Total Energy          =     -76.3226846579733973 [Eh]
	-----------------------------------------------------------


*** tstop() called on psinet at Mon May 15 15:34:06 2017
Module time:
	user time   =       0.14 seconds =       0.00 minutes
	system time =       0.00 seconds =       0.00 minutes
	total time  =          0 seconds =       0.00 minutes
Total time:
	user time   =       2.98 seconds =       0.05 minutes
	system time =       0.23 seconds =       0.00 minutes
	total time  =          3 seconds =       0.05 minutes

  //>>>>>>>>>>>>>>>>>>>>>>>>>>>>>>>>>>>//
  //  CBS Computation: CCSD(T) / 3-21G //
  //<<<<<<<<<<<<<<<<<<<<<<<<<<<<<<<<<<<//


*** tstart() called on psinet
*** at Mon May 15 15:34:06 2017

   => Loading Basis Set <=

    Name: 3-21G
    Role: ORBITAL
    Keyword: BASIS
    atoms 1   entry O          line    89 file /home/psilocaluser/gits/hrw-direct/objdir4/stage/usr/local/psi4/share/psi4/basis/3-21g.gbs 
    atoms 2-3 entry H          line    20 file /home/psilocaluser/gits/hrw-direct/objdir4/stage/usr/local/psi4/share/psi4/basis/3-21g.gbs 


         ---------------------------------------------------------
                                   SCF
            by Justin Turney, Rob Parrish, and Andy Simmonett
                              RHF Reference
                        1 Threads,    500 MiB Core
         ---------------------------------------------------------

  ==> Geometry <==

    Molecular point group: c2v
    Full point group: C2v

    Geometry (in Angstrom), charge = 0, multiplicity = 1:

       Center              X                  Y                   Z               Mass       
    ------------   -----------------  -----------------  -----------------  -----------------
           O          0.000000000000     0.000000000000    -0.079135765807    15.994914619560
           H          0.000000000000    -0.707106781187     0.627971015380     1.007825032070
           H          0.000000000000     0.707106781187     0.627971015380     1.007825032070

  Running in c2v symmetry.

  Rotational constants: A =     18.83462  B =     16.72674  C =      8.85910 [cm^-1]
  Rotational constants: A = 564647.56322  B = 501455.10273  C = 265589.24470 [MHz]
  Nuclear repulsion =    8.841020130083374

  Charge       = 0
  Multiplicity = 1
  Electrons    = 10
  Nalpha       = 5
  Nbeta        = 5

  ==> Algorithm <==

  SCF Algorithm Type is PK.
  DIIS enabled.
  MOM disabled.
  Fractional occupation disabled.
  Guess Type is SAD.
  Energy threshold   = 1.00e-08
  Density threshold  = 1.00e-08
  Integral threshold = 0.00e+00

  ==> Primary Basis <==

  Basis Set: 3-21G
    Blend: 3-21G
    Number of shells: 9
    Number of basis function: 13
    Number of Cartesian functions: 13
    Spherical Harmonics?: false
    Max angular momentum: 1

  ==> Pre-Iterations <==

   -------------------------------------------------------
    Irrep   Nso     Nmo     Nalpha   Nbeta   Ndocc  Nsocc
   -------------------------------------------------------
     A1         7       7       0       0       0       0
     A2         0       0       0       0       0       0
     B1         2       2       0       0       0       0
     B2         4       4       0       0       0       0
   -------------------------------------------------------
    Total      13      13       5       5       5       0
   -------------------------------------------------------

  ==> Integral Setup <==

  Using in-core PK algorithm.
   Calculation information:
      Number of atoms:                   3
      Number of AO shells:               9
      Number of primitives:             15
      Number of atomic orbitals:        13
      Number of basis functions:        13

      Integral cutoff                 1.00e-12
      Number of threads:                 1

  Performing in-core PK
  Using 8372 doubles for integral storage.
  We computed 1035 shell quartets total.
  Whereas there are 1035 unique shell quartets.
  ==> DiskJK: Disk-Based J/K Matrices <==

    J tasked:                  Yes
    K tasked:                  Yes
    wK tasked:                  No
    Memory (MB):               375
    Schwarz Cutoff:          1E-12

    OpenMP threads:              1
  Minimum eigenvalue in the overlap matrix is 1.1381533996E-01.
  Using Symmetric Orthogonalization.

  SCF Guess: Superposition of Atomic Densities via on-the-fly atomic UHF.

  ==> Iterations <==

                        Total Energy        Delta E     RMS |[F,P]|

   @RHF iter   0:   -75.60254631067656   -7.56025e+01   1.76342e-01 
   @RHF iter   1:   -75.50845710316844    9.40892e-02   3.98809e-02 
   @RHF iter   2:   -75.56397836253805   -5.55213e-02   2.21160e-02 DIIS
   @RHF iter   3:   -75.57426380348151   -1.02854e-02   3.87254e-03 DIIS
   @RHF iter   4:   -75.57542808567422   -1.16428e-03   9.23777e-04 DIIS
   @RHF iter   5:   -75.57551384971183   -8.57640e-05   2.01446e-04 DIIS
   @RHF iter   6:   -75.57551800992580   -4.16021e-06   3.99644e-05 DIIS
   @RHF iter   7:   -75.57551815774183   -1.47816e-07   1.45350e-06 DIIS
   @RHF iter   8:   -75.57551815782284   -8.10161e-11   1.51787e-07 DIIS
   @RHF iter   9:   -75.57551815782371   -8.66862e-13   1.63998e-08 DIIS
   @RHF iter  10:   -75.57551815782368    2.84217e-14   8.84472e-10 DIIS

  ==> Post-Iterations <==

    Orbital Energies (a.u.)
    -----------------------

    Doubly Occupied:                                                      

       1A1   -20.449406     2A1    -1.325898     1B2    -0.638689  
       3A1    -0.561339     1B1    -0.486500  

    Virtual:                                                              

       4A1     0.246568     2B2     0.338289     3B2     1.116169  
       5A1     1.318069     2B1     1.773841     6A1     1.914652  
       4B2     1.985259     7A1     3.104996  

    Final Occupation by Irrep:
             A1    A2    B1    B2 
    DOCC [     3,    0,    1,    1 ]

  Energy converged.

  @RHF Final Energy:   -75.57551815782368

   => Energetics <=

    Nuclear Repulsion Energy =              8.8410201300833737
    One-Electron Energy =                -121.9094149559440297
    Two-Electron Energy =                  37.4928766680369705
    DFT Exchange-Correlation Energy =       0.0000000000000000
    Empirical Dispersion Energy =           0.0000000000000000
    PCM Polarization Energy =               0.0000000000000000
    EFP Energy =                            0.0000000000000000
    Total Energy =                        -75.5755181578236801



Properties will be evaluated at   0.000000,   0.000000,   0.000000 Bohr

Properties computed using the SCF density matrix

  Nuclear Dipole Moment: (a.u.)
     X:     0.0000      Y:    -0.0000      Z:     1.1770

  Electronic Dipole Moment: (a.u.)
     X:     0.0000      Y:     0.0000      Z:    -0.1401

  Dipole Moment: (a.u.)
     X:     0.0000      Y:    -0.0000      Z:     1.0369     Total:     1.0369

  Dipole Moment: (Debye)
     X:     0.0000      Y:    -0.0000      Z:     2.6355     Total:     2.6355


*** tstop() called on psinet at Mon May 15 15:34:07 2017
Module time:
	user time   =       0.31 seconds =       0.01 minutes
	system time =       0.01 seconds =       0.00 minutes
	total time  =          1 seconds =       0.02 minutes
Total time:
	user time   =       3.30 seconds =       0.06 minutes
	system time =       0.24 seconds =       0.00 minutes
	total time  =          4 seconds =       0.07 minutes
 MINTS: Wrapper to libmints.
   by Justin Turney

   Calculation information:
      Number of threads:                 1
      Number of atoms:                   3
      Number of AO shells:               9
      Number of SO shells:               7
      Number of primitives:             15
      Number of atomic orbitals:        13
      Number of basis functions:        13

      Number of irreps:                  4
      Integral cutoff                 0.00e+00
      Number of functions per irrep: [   7    0    2    4 ]

 OEINTS: Overlap, kinetic, potential, dipole, and quadrupole integrals
         stored in file 35.

      Computing two-electron integrals...done
      Computed 1270 non-zero two-electron integrals.
        Stored in file 33.


*** tstart() called on psinet
*** at Mon May 15 15:34:07 2017


	Wfn Parameters:
[...]
	IWL integrals will be deleted.
	(OO|OO)...
	Presorting SO-basis two-electron integrals.
	Sorting File: SO Ints (nn|nn) nbuckets = 1
	Transforming the one-electron integrals and constructing Fock matrices
	Starting first half-transformation.
	Sorting half-transformed integrals.
	First half integral transformation complete.
	Starting second half-transformation.
	Two-electron integral transformation complete.
	(OO|OV)...
	Starting second half-transformation.
	Two-electron integral transformation complete.
	(OO|VV)...
	Starting second half-transformation.
	Two-electron integral transformation complete.
	(OV|OO)...
	Starting first half-transformation.
	Sorting half-transformed integrals.
	First half integral transformation complete.
	Starting second half-transformation.
	Two-electron integral transformation complete.
	(OV|OV)...
	Starting second half-transformation.
	Two-electron integral transformation complete.
	(OV|VV)...
	Starting second half-transformation.
	Two-electron integral transformation complete.
	(VV|OO)...
	Starting first half-transformation.
	Sorting half-transformed integrals.
	First half integral transformation complete.
	Starting second half-transformation.
	Two-electron integral transformation complete.
	(VV|OV)...
	Starting second half-transformation.
	Two-electron integral transformation complete.
	(VV|VV)...
	Starting second half-transformation.
	Two-electron integral transformation complete.
	Frozen core energy     =      0.00000000000000

	Size of irrep 0 of <ab|cd> integrals:      0.001 (MW) /      0.005 (MB)
	Size of irrep 1 of <ab|cd> integrals:      0.000 (MW) /      0.000 (MB)
	Size of irrep 2 of <ab|cd> integrals:      0.000 (MW) /      0.001 (MB)
	Size of irrep 3 of <ab|cd> integrals:      0.001 (MW) /      0.005 (MB)
	Total:                                     0.001 (MW) /      0.011 (MB)

	Size of irrep 0 of <ia|bc> integrals:      0.000 (MW) /      0.003 (MB)
	Size of irrep 1 of <ia|bc> integrals:      0.000 (MW) /      0.000 (MB)
	Size of irrep 2 of <ia|bc> integrals:      0.000 (MW) /      0.000 (MB)
	Size of irrep 3 of <ia|bc> integrals:      0.000 (MW) /      0.002 (MB)
	Total:                                     0.001 (MW) /      0.006 (MB)

	Size of irrep 0 of tijab amplitudes:       0.000 (MW) /      0.002 (MB)
	Size of irrep 1 of tijab amplitudes:       0.000 (MW) /      0.000 (MB)
	Size of irrep 2 of tijab amplitudes:       0.000 (MW) /      0.000 (MB)
	Size of irrep 3 of tijab amplitudes:       0.000 (MW) /      0.001 (MB)
	Total:                                     0.000 (MW) /      0.004 (MB)

	Nuclear Rep. energy          =      9.16175526430830
	SCF energy                   =    -75.58526923020182
	One-electron energy          =   -122.57392817026528
	Two-electron energy          =     37.82690367575513
	Reference energy             =    -75.58526923020186

*** tstop() called on psinet at Mon May 15 15:36:39 2017
Module time:
	user time   =       0.01 seconds =       0.00 minutes
	system time =       0.02 seconds =       0.00 minutes
	total time  =          0 seconds =       0.00 minutes
Total time:
	user time   =     128.00 seconds =       2.13 minutes
	system time =      15.53 seconds =       0.26 minutes
	total time  =        156 seconds =       2.60 minutes

*** tstart() called on psinet
*** at Mon May 15 15:36:39 2017

            **************************
            *                        *
            *        CCENERGY        *
            *                        *
            **************************

    Nuclear Rep. energy (wfn)     =    9.161755264308301
    SCF energy          (wfn)     =  -75.585269230201817
    Reference energy    (file100) =  -75.585269230201860

    Input parameters:
    -----------------
    Wave function   =     CCSD_T
    Reference wfn   =     RHF
    Brueckner       =     No
    Memory (Mbytes) =     524.3
    Maxiter         =     50
    R_Convergence   =     1.0e-07
    E_Convergence   =     1.0e-06
    Restart         =     Yes
    DIIS            =     Yes
    AO Basis        =     NONE
    ABCD            =     NEW
    Cache Level     =     2
    Cache Type      =     LOW
    Print Level     =     1
    Num. of threads =     1
    # Amps to Print =     10
    Print MP2 Amps? =     No
    Analyze T2 Amps =     No
    Print Pair Ener =     No
    Local CC        =     No
    SCS-MP2         =     False
    SCSN-MP2        =     False
    SCS-CCSD        =     False

MP2 correlation energy -0.1227540168479912
                Solving CC Amplitude Equations
                ------------------------------
  Iter             Energy              RMS        T1Diag      D1Diag    New D1Diag    D2Diag
  ----     ---------------------    ---------   ----------  ----------  ----------   --------
     0        -0.122754016847991    0.000e+00    0.000000    0.000000    0.000000    0.094493
     1        -0.126083155442778    2.593e-02    0.003917    0.009124    0.009124    0.104989
     2        -0.129829727520319    9.920e-03    0.005127    0.011339    0.011339    0.112487
     3        -0.130038883716664    1.937e-03    0.005454    0.012367    0.012367    0.113645
     4        -0.130059503732236    5.902e-04    0.005550    0.012800    0.012800    0.113814
     5        -0.130056681602534    1.594e-04    0.005586    0.012960    0.012960    0.113796
     6        -0.130055369404797    3.027e-05    0.005592    0.012987    0.012987    0.113785
     7        -0.130055494913402    7.271e-06    0.005593    0.012994    0.012994    0.113784
     8        -0.130055386523357    1.426e-06    0.005593    0.012994    0.012994    0.113784
     9        -0.130055387797229    3.008e-07    0.005593    0.012994    0.012994    0.113784
    10        -0.130055387676597    4.720e-08    0.005593    0.012994    0.012994    0.113784

    Iterations converged.


    Largest TIA Amplitudes:
              2   0         0.0105649622
              4   7         0.0100565097
              4   5        -0.0055823519
              2   2         0.0051768989
              1   2        -0.0039108990
              2   3        -0.0028844181
              1   3         0.0027824194
              1   0        -0.0023032763
              2   1         0.0016207706
              4   6        -0.0014685103

    Largest TIjAb Amplitudes:
      4   4   5   5        -0.0504794760
      3   3   4   4        -0.0434922929
      2   2   2   2        -0.0338438063
      4   4   6   6        -0.0292121454
      2   4   0   5         0.0268661712
      4   2   5   0         0.0268661712
      2   3   2   4        -0.0263244551
      3   2   4   2        -0.0263244551
      2   2   0   0        -0.0263080343
      4   4   1   1        -0.0248793767

    SCF energy       (wfn)                    =  -75.585269230201817
    Reference energy (file100)                =  -75.585269230201860

    Opposite-spin MP2 correlation energy      =   -0.094913397398604
    Same-spin MP2 correlation energy          =   -0.027840619449387
    MP2 correlation energy                    =   -0.122754016847991
      * MP2 total energy                      =  -75.708023247049852

    Opposite-spin CCSD correlation energy     =   -0.106793671595027
    Same-spin CCSD correlation energy         =   -0.023261716035844
    CCSD correlation energy                   =   -0.130055387676597
      * CCSD total energy                     =  -75.715324617878451


*** tstop() called on psinet at Mon May 15 15:36:39 2017
Module time:
	user time   =       0.06 seconds =       0.00 minutes
	system time =       0.15 seconds =       0.00 minutes
	total time  =          0 seconds =       0.00 minutes
Total time:
	user time   =     128.06 seconds =       2.13 minutes
	system time =      15.68 seconds =       0.26 minutes
	total time  =        156 seconds =       2.60 minutes

*** tstart() called on psinet
*** at Mon May 15 15:36:39 2017

            **************************
            *                        *
            *        CCTRIPLES       *
            *                        *
            **************************


    Wave function   =    CCSD_T
    Reference wfn   =      RHF

    Nuclear Rep. energy (wfn)                =    9.161755264308301
    SCF energy          (wfn)                =  -75.585269230201817
    Reference energy    (file100)            =  -75.585269230201860
    CCSD energy         (file100)            =   -0.130055387676597
    Total CCSD energy   (file100)            =  -75.715324617878451

    Number of ijk index combinations:               35
    Memory available in words        :        65536000
    ~Words needed per explicit thread:             256
    Number of threads for explicit ijk threading:    1

    MKL num_threads set to 1 for explicit threading.

    (T) energy                                =   -0.001351313884293
      * CCSD(T) total energy                  =  -75.716675931762751


*** tstop() called on psinet at Mon May 15 15:36:39 2017
Module time:
	user time   =       0.00 seconds =       0.00 minutes
	system time =       0.01 seconds =       0.00 minutes
	total time  =          0 seconds =       0.00 minutes
Total time:
	user time   =     128.06 seconds =       2.13 minutes
	system time =      15.69 seconds =       0.26 minutes
	total time  =        156 seconds =       2.60 minutes

  //>>>>>>>>>>>>>>>>>>>>>>>>>>>>>>>>>>>//
  //    CBS Results: custom function   //
  //<<<<<<<<<<<<<<<<<<<<<<<<<<<<<<<<<<<//


   ==> HF <==

   HI-zeta (0) Energy:               -76.056809982380


   ==> Helgaker 2-point correlated extrapolation for method: MP2 <==

   LO-zeta (2) Energy:               -76.230869016310
   HI-zeta (3) Energy:               -76.332175099730
   Extrapolated Energy:              -76.374830292749

   @Extrapolated MP2/(D,T):          -76.374830292749



   ==> Helgaker 2-point correlated extrapolation for method: HF <==

   LO-zeta (2) Energy:               -76.026569212220
   HI-zeta (3) Energy:               -76.056809982380
   Extrapolated Energy:              -76.069542938236

   @Extrapolated HF/(D,T):           -76.069542938236


   ==> CCSD(T) <==

   HI-zeta (0) Energy:               -75.716675931763

   ==> MP2 <==

   HI-zeta (0) Energy:               -75.708023247050

   ==> Components <==

  ---------------------------------------------------------------------------------------------------------
                          Method / Basis                      Rqd      Energy [Eh]   Variable
  ---------------------------------------------------------------------------------------------------------
                             mp2 / cc-pvdz                      *     -76.23086902   MP2 TOTAL ENERGY
                              hf / cc-pvdz                      *     -76.02656921   HF TOTAL ENERGY
                             mp2 / cc-pvtz                      *     -76.33217510   MP2 TOTAL ENERGY
                              hf / cc-pvtz                      *     -76.05680998   HF TOTAL ENERGY
                             mp2 / 3-21g                        *     -75.70802325   MP2 TOTAL ENERGY
                         ccsd(t) / 3-21g                        *     -75.71667593   CCSD(T) TOTAL ENERGY
                              hf / 3-21g                              -75.58526923   HF TOTAL ENERGY
                            ccsd / 3-21g                              -75.71532462   CCSD TOTAL ENERGY
  ---------------------------------------------------------------------------------------------------------

   ==> Stages <==

  ---------------------------------------------------------------------------------------------------------
      Stage               Method / Basis                       Wt      Energy [Eh]   Scheme
  ---------------------------------------------------------------------------------------------------------
        scf                   hf / cc-pvtz                      1     -76.05680998   xtpl_highest_1
       corl                  mp2 / cc-pv[dt]z                   1     -76.37483029   corl_xtpl_helgaker_2
       corl                   hf / cc-pv[dt]z                  -1     -76.06954294   corl_xtpl_helgaker_2
      delta              ccsd(t) / 3-21g                        1     -75.71667593   xtpl_highest_1
      delta                  mp2 / 3-21g                       -1     -75.70802325   xtpl_highest_1
  ---------------------------------------------------------------------------------------------------------

   ==> CBS <==

  ---------------------------------------------------------------------------------------------------------
      Stage               Method / Basis                               Energy [Eh]   Scheme
  ---------------------------------------------------------------------------------------------------------
        scf                   hf / cc-pvtz                            -76.05680998   xtpl_highest_1
       corl                  mp2 / cc-pv[dt]z                          -0.30528735   corl_xtpl_helgaker_2
      delta        ccsd(t) - mp2 / 3-21g                               -0.00865268   xtpl_highest_1
      total                  CBS                                      -76.37075002   
  ---------------------------------------------------------------------------------------------------------
   => Loading Basis Set <=

    Name: STO-3G
    Role: ORBITAL
    Keyword: BASIS
    atoms 1   entry O          line    80 file /home/psilocaluser/gits/hrw-direct/objdir4/stage/usr/local/psi4/share/psi4/basis/sto-3g.gbs 
    atoms 2-3 entry H          line    18 file /home/psilocaluser/gits/hrw-direct/objdir4/stage/usr/local/psi4/share/psi4/basis/sto-3g.gbs 


-------------------------------------------------------------

  Computing gradient from energies (fd_1_0).
	Using 3-point formula.
	Energy without displacement:  -76.3707500216
	Check energies below for precision!
	Forces are for mass-weighted, symmetry-adapted cartesians (in au).

	 Coord      Energy(-)        Energy(+)        Force
	    0    -76.3707468451   -76.3707468457    -0.0000000663
	    1    -76.3707450872   -76.3707450863     0.0000000963

	Gradient written.

-------------------------------------------------------------
  Irrep: 1 Size: 3 x 3

                 1                   2                   3

    1     0.00000000000000     0.00000000000000    -0.00000008872697
    2     0.00000000000000     0.00000006837229     0.00000004436348
    3     0.00000000000000    -0.00000006837229     0.00000004436348




			-----------------------------------------
			 OPTKING 2.0: for geometry optimizations 
			  - R.A. King,  Bethel University        
			-----------------------------------------

	Previous internal coordinate definitions found.
	---Fragment 1 Geometry and Gradient---
	 O           0.0000000000        0.0000000000       -0.1259048085
	 H           0.0000000000       -1.4254500664        0.9991003385
	 H           0.0000000000        1.4254500664        0.9991003385
	             0.0000000000        0.0000000000       -0.0000000887
	             0.0000000000        0.0000000684        0.0000000444
	             0.0000000000       -0.0000000684        0.0000000444

	---Fragment 1 Intrafragment Coordinates---
	 - Coordinate -           - BOHR/RAD -       - ANG/DEG -
	 R(1,2)           =         1.815914	       0.960940
	 R(1,3)           =         1.815914	       0.960940
	 B(2,1,3)         =         1.805317	     103.437017

	Current energy   :       -76.3707500216

	Energy change for the previous step:
		Projected    :        -0.0000000001
		Actual       :        -0.0000000001

	Performing BFGS update.
	Previous computed or guess Hessian on step 1.
	Denominators (dg)(dq) or (dq)(dq) are very small.
	 Skipping Hessian update for step 5.
	Denominators (dg)(dq) or (dq)(dq) are very small.
	 Skipping Hessian update for step 4.
	Steps to be used in Hessian update: 3 2
	Taking RFO optimization step.
	Going to follow RFO solution 1.
	Using RFO vector 1.
	Norm of target step-size    0.00000
	Projected energy change by RFO approximation:        -0.0000000000

	Back-transformation to cartesian coordinates...
	Successfully converged to displaced geometry.

	--- Internal Coordinate Step in ANG or DEG, aJ/ANG or AJ/DEG ---
	 ---------------------------------------------------------------------------
	   Coordinate                Previous        Force       Change         New 
	   ----------                --------       ------       ------       ------
	    1 R(1,2)          =      0.960940     0.000000    -0.000000     0.960940
	    2 R(1,3)          =      0.960940     0.000000    -0.000000     0.960940
	    3 B(2,1,3)        =    103.437017     0.000000     0.000049   103.437066
	 ---------------------------------------------------------------------------
	Successfully symmetrized geometry.

  ==> Convergence Check <==

  Measures of convergence in internal coordinates in au.
  Criteria marked as inactive (o), active & met (*), and active & unmet ( ).
  ---------------------------------------------------------------------------------------------
   Step     Total Energy     Delta E     MAX Force     RMS Force      MAX Disp      RMS Disp   
  ---------------------------------------------------------------------------------------------
    Convergence Criteria             o    2.00e-06 *    1.00e-06 *    6.00e-06 *    4.00e-06 *
  ---------------------------------------------------------------------------------------------
      6     -76.37075002   -6.68e-11 o    1.40e-07 *    8.37e-08 *    8.53e-07 *    4.93e-07 *  ~
  ---------------------------------------------------------------------------------------------


  **** Optimization is complete! (in 6 steps) ****

  ==> Optimization Summary <==

  Measures of convergence in internal coordinates in au.
  --------------------------------------------------------------------------------------------------------------- ~
   Step         Total Energy             Delta E       MAX Force       RMS Force        MAX Disp        RMS Disp  ~
  --------------------------------------------------------------------------------------------------------------- ~
      1     -76.368122754271    -76.368122754271      0.03201087      0.02629926      0.06650963      0.05713338  ~
      2     -76.370666130985     -0.002543376714      0.00434372      0.00339932      0.03132392      0.01931303  ~
      3     -76.370749279562     -0.000083148576      0.00045665      0.00040514      0.00218212      0.00156421  ~
      4     -76.370750011272     -0.000000731711      0.00006932      0.00005671      0.00014530      0.00012871  ~
      5     -76.370750021539     -0.000000010266      0.00000421      0.00000360      0.00000827      0.00000801  ~
      6     -76.370750021606     -0.000000000067      0.00000014      0.00000008      0.00000085      0.00000049  ~
  --------------------------------------------------------------------------------------------------------------- ~

	Writing optimization data to binary file.
	Final energy is    -76.3707500216056
	Final (previous) structure:
	Cartesian Geometry (in Angstrom)
	    O     0.0000000000   0.0000000000  -0.0666259551
	    H     0.0000000000  -0.7543156871   0.5287011282
	    H     0.0000000000   0.7543156871   0.5287011282
	Saving final (previous) structure.
			--------------------------
			 OPTKING Finished Execution 
			--------------------------

    Final optimized geometry and variables:
    Molecular point group: c2v
    Full point group: C2v

    Geometry (in Angstrom), charge = 0, multiplicity = 1:

    O       
    H             1           R
    H             1           R      2           A

    A         =  103.4370172171
    R         =    0.9609404206

	Cleaning optimization helper files.
	[4a] opt(sherrill) energy.........................................PASSED
	[4b] opt(sherrill) bond...........................................PASSED
	[4c] opt(sherrill) angle..........................................PASSED

*** Psi4 exiting successfully. Buy a developer a beer!
