
    -----------------------------------------------------------------------
          Psi4: An Open-Source Ab Initio Electronic Structure Package
                               Psi4 1.1rc3.dev5 

                         Git: Rev {master} 3fbd859 


    R. M. Parrish, L. A. Burns, D. G. A. Smith, A. C. Simmonett,
    A. E. DePrince III, E. G. Hohenstein, U. Bozkaya, A. Yu. Sokolov,
    R. Di Remigio, R. M. Richard, J. F. Gonthier, A. M. James,
    H. R. McAlexander, A. Kumar, M. Saitow, X. Wang, B. P. Pritchard,
    P. Verma, H. F. Schaefer III, K. Patkowski, R. A. King, E. F. Valeev,
    F. A. Evangelista, J. M. Turney, T. D. Crawford, and C. D. Sherrill,
    J. Chem. Theory Comput. in press (2017).
    (doi: 10.1021/acs.jctc.7b00174)

    -----------------------------------------------------------------------


    Psi4 started on: Monday, 15 May 2017 03:39PM

    Process ID:  17224
    PSIDATADIR: /home/psilocaluser/gits/hrw-direct/objdir4/stage/usr/local/psi4/share/psi4
    Memory:     500.0 MiB
    Threads:    1
    
  ==> Input File <==

--------------------------------------------------------------------------
#! checks that all SAPT physical components (elst, exch, indc, disp) and
#! total IE are being computed correctly for SAPT2+3(CCD)dMP2/aug-cc-pvdz and
#! all lesser methods thereof.

h2kc = psi_hartree2kcalmol
digits = 3

def_mem = get_memory()
compare_integers(524288000, def_mem, 'Default mem set correctly')
set_memory('600.0 MB')
set_mem = get_memory()
compare_integers(600000000, set_mem, 'Given MiB mem set correctly by fn')
memory 600.0 mib
set_mem2 = get_memory()
compare_integers(629145600, set_mem2, 'Given MiB mem set correctly by parse')

#set print 3  # shows psivars being computed

molecule s222 {
0 1
O  -1.551007  -0.114520   0.000000
H  -1.934259   0.762503   0.000000
H  -0.599677   0.040712   0.000000
--
0 1
O   1.350625   0.111469   0.000000
H   1.680398  -0.373741  -0.758561
H   1.680398  -0.373741   0.758561
units angstrom
}


set basis aug-cc-pvdz
set freeze_core true
#set nat_orbs_t2 true  # this trio now default
#set nat_orbs_t3 true
#set nat_orbs_v4 true
set occ_tolerance 1.0e-6
set do_mbpt_disp true

# extracted from psi4 screen output.
#   a1 matches sapt benchmark paper
#   a0 reduces from a1 formulas
refs = {}
refs['a0'] = {}
refs['a1'] = {}
refs['a0']['HF'] = {}
refs['a1']['HF'] = {}
refs['a0']['SAPT0'] = {}
refs['a1']['SAPT0'] = {}
refs['a0']['SAPT0']['ELST ENERGY'] =   -8.39320863
refs['a0']['SAPT0']['EXCH ENERGY'] =    7.03954672
refs['a0']['SAPT0']['IND ENERGY' ] =   -2.21474970
refs['a0']['SAPT0']['DISP ENERGY'] =   -1.81818625
refs['a1']['SAPT0']['ELST ENERGY'] =   -8.39320863
refs['a1']['SAPT0']['EXCH ENERGY'] =    7.03954672
refs['a1']['SAPT0']['IND ENERGY' ] =   -2.21474970
refs['a1']['SAPT0']['DISP ENERGY'] =   -1.81526996

refs['a1']['SSAPT0'] = {}  # really a3
refs['a1']['SSAPT0']['ELST ENERGY'] =   -8.39320863
refs['a1']['SSAPT0']['EXCH ENERGY'] =    7.03954672
refs['a1']['SSAPT0']['IND ENERGY' ] =   -2.18091513
refs['a1']['SSAPT0']['DISP ENERGY'] =   -1.80937423
refs['a1']['SSAPT0']['TOTAL ENERGY'] =  -5.34395126
refs['a0']['SSAPT0'] = refs['a1']['SSAPT0']

refs['a0']['SAPT2'] = {}
refs['a1']['SAPT2'] = {}
refs['a0']['SAPT2']['ELST ENERGY'] =   -8.36503179
refs['a0']['SAPT2']['EXCH ENERGY'] =    8.41972860
refs['a0']['SAPT2']['IND ENERGY' ] =   -2.45553242
refs['a0']['SAPT2']['DISP ENERGY'] =   -1.81818625
refs['a1']['SAPT2']['ELST ENERGY'] =   -8.36503179
refs['a1']['SAPT2']['EXCH ENERGY'] =    8.42966618
refs['a1']['SAPT2']['IND ENERGY' ] =   -2.45348353
refs['a1']['SAPT2']['DISP ENERGY'] =   -1.81526996
refs['a0']['SAPT2+'] = {}
refs['a1']['SAPT2+'] = {}
refs['a0']['SAPT2+']['ELST ENERGY'] =  -8.36503179
refs['a0']['SAPT2+']['EXCH ENERGY'] =   8.41972860
refs['a0']['SAPT2+']['IND ENERGY' ] =  -2.45553242
refs['a0']['SAPT2+']['DISP ENERGY'] =  -2.20135127
refs['a1']['SAPT2+']['ELST ENERGY'] =  -8.36503179
refs['a1']['SAPT2+']['EXCH ENERGY'] =   8.42966618
refs['a1']['SAPT2+']['IND ENERGY' ] =  -2.45348353
refs['a1']['SAPT2+']['DISP ENERGY'] =  -2.19843498
refs['a0']['SAPT2+(CCD)'] = {}
refs['a1']['SAPT2+(CCD)'] = {}
refs['a0']['SAPT2+(CCD)']['ELST ENERGY'] =  -8.36503179
refs['a0']['SAPT2+(CCD)']['EXCH ENERGY'] =   8.41972860
refs['a0']['SAPT2+(CCD)']['IND ENERGY' ] =  -2.45553242
refs['a0']['SAPT2+(CCD)']['DISP ENERGY'] =  -2.17849352
refs['a1']['SAPT2+(CCD)']['ELST ENERGY'] =  -8.36503179
refs['a1']['SAPT2+(CCD)']['EXCH ENERGY'] =   8.42966618
refs['a1']['SAPT2+(CCD)']['IND ENERGY' ] =  -2.45348353
refs['a1']['SAPT2+(CCD)']['DISP ENERGY'] =  -2.17557722
refs['a0']['SAPT2+DMP2'] = {}
refs['a1']['SAPT2+DMP2'] = {}
refs['a0']['SAPT2+DMP2']['ELST ENERGY'] =  -8.36503179
refs['a0']['SAPT2+DMP2']['EXCH ENERGY'] =   8.41972860
refs['a0']['SAPT2+DMP2']['IND ENERGY' ] =  -2.60204338
refs['a0']['SAPT2+DMP2']['DISP ENERGY'] =  -2.20135127
refs['a1']['SAPT2+DMP2']['ELST ENERGY'] =  -8.36503179
refs['a1']['SAPT2+DMP2']['EXCH ENERGY'] =   8.42966618
refs['a1']['SAPT2+DMP2']['IND ENERGY' ] =  -2.61489725
refs['a1']['SAPT2+DMP2']['DISP ENERGY'] =  -2.19843498
refs['a0']['SAPT2+(CCD)DMP2'] = {}
refs['a1']['SAPT2+(CCD)DMP2'] = {}
refs['a0']['SAPT2+(CCD)DMP2']['ELST ENERGY'] =  -8.36503179
refs['a0']['SAPT2+(CCD)DMP2']['EXCH ENERGY'] =   8.41972860
refs['a0']['SAPT2+(CCD)DMP2']['IND ENERGY' ] =  -2.60204338
refs['a0']['SAPT2+(CCD)DMP2']['DISP ENERGY'] =  -2.17849352
refs['a1']['SAPT2+(CCD)DMP2']['ELST ENERGY'] =  -8.36503179
refs['a1']['SAPT2+(CCD)DMP2']['EXCH ENERGY'] =   8.42966618
refs['a1']['SAPT2+(CCD)DMP2']['IND ENERGY' ] =  -2.61489725
refs['a1']['SAPT2+(CCD)DMP2']['DISP ENERGY'] =  -2.17557722
refs['a0']['SAPT2+(3)'] = {}
refs['a1']['SAPT2+(3)'] = {}
refs['a0']['SAPT2+(3)']['ELST ENERGY'] =   -8.19846855
refs['a0']['SAPT2+(3)']['EXCH ENERGY'] =    8.41972860
refs['a0']['SAPT2+(3)']['IND ENERGY' ] =   -2.45553242
refs['a0']['SAPT2+(3)']['DISP ENERGY'] =   -2.16395183
refs['a1']['SAPT2+(3)']['ELST ENERGY'] =   -8.19846855
refs['a1']['SAPT2+(3)']['EXCH ENERGY'] =    8.42966618
refs['a1']['SAPT2+(3)']['IND ENERGY' ] =   -2.45348353
refs['a1']['SAPT2+(3)']['DISP ENERGY'] =   -2.16103554
refs['a0']['SAPT2+(3)(CCD)'] = {}
refs['a1']['SAPT2+(3)(CCD)'] = {}
refs['a0']['SAPT2+(3)(CCD)']['ELST ENERGY'] =   -8.19846855
refs['a0']['SAPT2+(3)(CCD)']['EXCH ENERGY'] =    8.41972860
refs['a0']['SAPT2+(3)(CCD)']['IND ENERGY' ] =   -2.45553242
refs['a0']['SAPT2+(3)(CCD)']['DISP ENERGY'] =   -2.14109407
refs['a1']['SAPT2+(3)(CCD)']['ELST ENERGY'] =   -8.19846855
refs['a1']['SAPT2+(3)(CCD)']['EXCH ENERGY'] =    8.42966618
refs['a1']['SAPT2+(3)(CCD)']['IND ENERGY' ] =   -2.45348353
refs['a1']['SAPT2+(3)(CCD)']['DISP ENERGY'] =   -2.13817778
refs['a0']['SAPT2+(3)DMP2'] = {}
refs['a1']['SAPT2+(3)DMP2'] = {}
refs['a0']['SAPT2+(3)DMP2']['ELST ENERGY'] =   -8.19846855
refs['a0']['SAPT2+(3)DMP2']['EXCH ENERGY'] =    8.41972860
refs['a0']['SAPT2+(3)DMP2']['IND ENERGY' ] =   -2.60204338
refs['a0']['SAPT2+(3)DMP2']['DISP ENERGY'] =   -2.16395183
refs['a1']['SAPT2+(3)DMP2']['ELST ENERGY'] =   -8.19846855
refs['a1']['SAPT2+(3)DMP2']['EXCH ENERGY'] =    8.42966618
refs['a1']['SAPT2+(3)DMP2']['IND ENERGY' ] =   -2.61489725
refs['a1']['SAPT2+(3)DMP2']['DISP ENERGY'] =   -2.16103554
refs['a0']['SAPT2+(3)(CCD)DMP2'] = {}
refs['a1']['SAPT2+(3)(CCD)DMP2'] = {}
refs['a0']['SAPT2+(3)(CCD)DMP2']['ELST ENERGY'] =   -8.19846855
refs['a0']['SAPT2+(3)(CCD)DMP2']['EXCH ENERGY'] =    8.41972860
refs['a0']['SAPT2+(3)(CCD)DMP2']['IND ENERGY' ] =   -2.60204338
refs['a0']['SAPT2+(3)(CCD)DMP2']['DISP ENERGY'] =   -2.14109407
refs['a1']['SAPT2+(3)(CCD)DMP2']['ELST ENERGY'] =   -8.19846855
refs['a1']['SAPT2+(3)(CCD)DMP2']['EXCH ENERGY'] =    8.42966618
refs['a1']['SAPT2+(3)(CCD)DMP2']['IND ENERGY' ] =   -2.61489725
refs['a1']['SAPT2+(3)(CCD)DMP2']['DISP ENERGY'] =   -2.13817778
refs['a0']['SAPT2+3'] = {}
refs['a1']['SAPT2+3'] = {}
refs['a0']['SAPT2+3']['ELST ENERGY'] =   -8.19846855
refs['a0']['SAPT2+3']['EXCH ENERGY'] =    8.41972860
refs['a0']['SAPT2+3']['IND ENERGY' ] =   -2.45553242
refs['a0']['SAPT2+3']['DISP ENERGY'] =   -2.27158925
refs['a1']['SAPT2+3']['ELST ENERGY'] =   -8.19846855
refs['a1']['SAPT2+3']['EXCH ENERGY'] =    8.42966618
refs['a1']['SAPT2+3']['IND ENERGY' ] =   -2.45348353
refs['a1']['SAPT2+3']['DISP ENERGY'] =   -2.26529951
refs['a0']['SAPT2+3(CCD)'] = {}
refs['a1']['SAPT2+3(CCD)'] = {}
refs['a0']['SAPT2+3(CCD)']['ELST ENERGY'] =   -8.19846855
refs['a0']['SAPT2+3(CCD)']['EXCH ENERGY'] =    8.41972860
refs['a0']['SAPT2+3(CCD)']['IND ENERGY' ] =   -2.45553242
refs['a0']['SAPT2+3(CCD)']['DISP ENERGY'] =   -2.24873150
refs['a1']['SAPT2+3(CCD)']['ELST ENERGY'] =   -8.19846855
refs['a1']['SAPT2+3(CCD)']['EXCH ENERGY'] =    8.42966618
refs['a1']['SAPT2+3(CCD)']['IND ENERGY' ] =   -2.45348353
refs['a1']['SAPT2+3(CCD)']['DISP ENERGY'] =   -2.24244175
refs['a0']['SAPT2+3DMP2'] = {}
refs['a1']['SAPT2+3DMP2'] = {}
refs['a0']['SAPT2+3DMP2']['ELST ENERGY'] =   -8.19846855
refs['a0']['SAPT2+3DMP2']['EXCH ENERGY'] =    8.41972860
refs['a0']['SAPT2+3DMP2']['IND ENERGY' ] =   -2.50584803
refs['a0']['SAPT2+3DMP2']['DISP ENERGY'] =   -2.27158925
refs['a1']['SAPT2+3DMP2']['ELST ENERGY'] =   -8.19846855
refs['a1']['SAPT2+3DMP2']['EXCH ENERGY'] =    8.42966618
refs['a1']['SAPT2+3DMP2']['IND ENERGY' ] =   -2.52215774
refs['a1']['SAPT2+3DMP2']['DISP ENERGY'] =   -2.26529951
refs['a0']['SAPT2+3(CCD)DMP2'] = {}
refs['a1']['SAPT2+3(CCD)DMP2'] = {}
refs['a0']['SAPT2+3(CCD)DMP2']['ELST ENERGY'] =   -8.19846855
refs['a0']['SAPT2+3(CCD)DMP2']['EXCH ENERGY'] =    8.41972860
refs['a0']['SAPT2+3(CCD)DMP2']['IND ENERGY' ] =   -2.50584803
refs['a0']['SAPT2+3(CCD)DMP2']['DISP ENERGY'] =   -2.24873150
refs['a1']['SAPT2+3(CCD)DMP2']['ELST ENERGY'] =   -8.19846855
refs['a1']['SAPT2+3(CCD)DMP2']['EXCH ENERGY'] =    8.42966618
refs['a1']['SAPT2+3(CCD)DMP2']['IND ENERGY' ] =   -2.52215774
refs['a1']['SAPT2+3(CCD)DMP2']['DISP ENERGY'] =   -2.24244175

refs['a0']['HF']['TOTAL ENERGY'] =  -3.56841161
refs['a0']['SAPT0']['TOTAL ENERGY'] =  -5.38659786
refs['a0']['SAPT2']['TOTAL ENERGY'] =  -4.21902186
refs['a0']['SAPT2+']['TOTAL ENERGY'] =  -4.60218688
refs['a0']['SAPT2+(3)']['TOTAL ENERGY'] =  -4.39822419
refs['a0']['SAPT2+3']['TOTAL ENERGY'] =  -4.50586162
refs['a0']['SAPT2+DMP2']['TOTAL ENERGY'] =  -4.74869784
refs['a0']['SAPT2+(3)DMP2']['TOTAL ENERGY'] =  -4.54473516
refs['a0']['SAPT2+3DMP2']['TOTAL ENERGY'] =  -4.55617723
refs['a0']['SAPT2+(CCD)']['TOTAL ENERGY'] =  -4.57932912
refs['a0']['SAPT2+(3)(CCD)']['TOTAL ENERGY'] =  -4.37536644
refs['a0']['SAPT2+3(CCD)']['TOTAL ENERGY'] =  -4.48300386
refs['a0']['SAPT2+(CCD)DMP2']['TOTAL ENERGY'] =  -4.72584008
refs['a0']['SAPT2+(3)(CCD)DMP2']['TOTAL ENERGY'] =  -4.52187740
refs['a0']['SAPT2+3(CCD)DMP2']['TOTAL ENERGY'] =  -4.53331948

refs['a1']['HF']['TOTAL ENERGY'] =  -3.56841161
refs['a1']['SAPT0']['TOTAL ENERGY'] =  -5.38368157
refs['a1']['SAPT2']['TOTAL ENERGY'] =  -4.20411910
refs['a1']['SAPT2+']['TOTAL ENERGY'] =  -4.58728412
refs['a1']['SAPT2+(3)']['TOTAL ENERGY'] =  -4.38332144
refs['a1']['SAPT2+3']['TOTAL ENERGY'] =  -4.48758541
refs['a1']['SAPT2+DMP2']['TOTAL ENERGY'] =  -4.74869784
refs['a1']['SAPT2+(3)DMP2']['TOTAL ENERGY'] =  -4.54473516
refs['a1']['SAPT2+3DMP2']['TOTAL ENERGY'] =  -4.55625962
refs['a1']['SAPT2+(CCD)']['TOTAL ENERGY'] =  -4.56442636
refs['a1']['SAPT2+(3)(CCD)']['TOTAL ENERGY'] =  -4.36046368
refs['a1']['SAPT2+3(CCD)']['TOTAL ENERGY'] =  -4.46472765
refs['a1']['SAPT2+(CCD)DMP2']['TOTAL ENERGY'] =  -4.72584008
refs['a1']['SAPT2+(3)(CCD)DMP2']['TOTAL ENERGY'] =  -4.52187740
refs['a1']['SAPT2+3(CCD)DMP2']['TOTAL ENERGY'] =  -4.53340186


# alpha=1 vals from perl scripts & sapt benchmarking paper --> qcdb scripts
#   these are same as 'a1' above
refs['qa1'] = {}
# SAPT0
refs['qa1']['SAPT0'] = {}  # SAPT0-SA-adz  #TEST
refs['qa1']['SAPT0']['ELST ENERGY' ] =  -8.3932
refs['qa1']['SAPT0']['EXCH ENERGY' ] =   7.0396
refs['qa1']['SAPT0']['IND ENERGY'  ] =  -2.2148
refs['qa1']['SAPT0']['DISP ENERGY' ] =  -1.8153
refs['qa1']['SAPT0']['TOTAL ENERGY'] =  -5.3837
# sSAPT0
refs['qa1']['SSAPT0'] = {}  # SAPT0S-SA-adz  #TEST
refs['qa1']['SSAPT0']['ELST ENERGY' ] =  -8.3932
refs['qa1']['SSAPT0']['EXCH ENERGY' ] =   7.0396
refs['qa1']['SSAPT0']['IND ENERGY'  ] =  -2.1809
refs['qa1']['SSAPT0']['DISP ENERGY' ] =  -1.8094
refs['qa1']['SSAPT0']['TOTAL ENERGY'] =  -5.3440
# SCS-SAPT0
# scs-sapt0 has a definition and we check it here but that shouldn't be
#   taken for evidence that the method is any good whatsoever or that we
#   endorse it.
refs['qa1']['SCS-SAPT0'] = {}  # SAPTSCS-SA-adz  #TEST
refs['qa1']['SCS-SAPT0']['ELST ENERGY' ] =  -8.3932
refs['qa1']['SCS-SAPT0']['EXCH ENERGY' ] =   7.0396
refs['qa1']['SCS-SAPT0']['IND ENERGY'  ] =  -2.2148
refs['qa1']['SCS-SAPT0']['DISP ENERGY' ] =  -1.7171
refs['qa1']['SCS-SAPT0']['TOTAL ENERGY'] =  -5.2855
# SAPT2
refs['qa1']['SAPT2'] = {}  # SAPT2-SA-adz  #TEST
refs['qa1']['SAPT2']['ELST ENERGY' ] =  -8.3650
refs['qa1']['SAPT2']['EXCH ENERGY' ] =   8.4297
refs['qa1']['SAPT2']['IND ENERGY'  ] =  -2.4535
refs['qa1']['SAPT2']['DISP ENERGY' ] =  -1.8153
refs['qa1']['SAPT2']['TOTAL ENERGY'] =  -4.2041
# SAPT2+
refs['qa1']['SAPT2+'] = {}  # SAPT2P-SA-adz  #TEST
refs['qa1']['SAPT2+']['ELST ENERGY' ] =  -8.3650
refs['qa1']['SAPT2+']['EXCH ENERGY' ] =   8.4297
refs['qa1']['SAPT2+']['IND ENERGY'  ] =  -2.4535
refs['qa1']['SAPT2+']['DISP ENERGY' ] =  -2.1984
refs['qa1']['SAPT2+']['TOTAL ENERGY'] =  -4.5873
refs['qa1']['SAPT2+(CCD)'] = {}  # SAPT2PC-SA-adz  #TEST
refs['qa1']['SAPT2+(CCD)']['ELST ENERGY' ] =  -8.3650
refs['qa1']['SAPT2+(CCD)']['EXCH ENERGY' ] =   8.4297
refs['qa1']['SAPT2+(CCD)']['IND ENERGY'  ] =  -2.4535
refs['qa1']['SAPT2+(CCD)']['DISP ENERGY' ] =  -2.1758
refs['qa1']['SAPT2+(CCD)']['TOTAL ENERGY'] =  -4.5646
refs['qa1']['SAPT2+DMP2'] = {}  # SAPT2PM-SA-adz  #TEST
refs['qa1']['SAPT2+DMP2']['ELST ENERGY' ] =  -8.3650
refs['qa1']['SAPT2+DMP2']['EXCH ENERGY' ] =   8.4297
refs['qa1']['SAPT2+DMP2']['IND ENERGY'  ] =  -2.6152
refs['qa1']['SAPT2+DMP2']['DISP ENERGY' ] =  -2.1984
refs['qa1']['SAPT2+DMP2']['TOTAL ENERGY'] =  -4.7490
refs['qa1']['SAPT2+(CCD)DMP2'] = {}  # SAPT2PCM-SA-adz  #TEST
refs['qa1']['SAPT2+(CCD)DMP2']['ELST ENERGY' ] =  -8.3650
refs['qa1']['SAPT2+(CCD)DMP2']['EXCH ENERGY' ] =   8.4297
refs['qa1']['SAPT2+(CCD)DMP2']['IND ENERGY'  ] =  -2.6152
refs['qa1']['SAPT2+(CCD)DMP2']['DISP ENERGY' ] =  -2.1758
refs['qa1']['SAPT2+(CCD)DMP2']['TOTAL ENERGY'] =  -4.7264
# SAPT2+(3)
refs['qa1']['SAPT2+(3)'] = {}  # SAPT3-SA-adz  #TEST
refs['qa1']['SAPT2+(3)']['ELST ENERGY' ] =  -8.1985
refs['qa1']['SAPT2+(3)']['EXCH ENERGY' ] =   8.4297
refs['qa1']['SAPT2+(3)']['IND ENERGY'  ] =  -2.4535
refs['qa1']['SAPT2+(3)']['DISP ENERGY' ] =  -2.1610
refs['qa1']['SAPT2+(3)']['TOTAL ENERGY'] =  -4.3833
refs['qa1']['SAPT2+(3)(CCD)'] = {}  # SAPT3C-SA-adz  #TEST
refs['qa1']['SAPT2+(3)(CCD)']['ELST ENERGY' ] =  -8.1985
refs['qa1']['SAPT2+(3)(CCD)']['EXCH ENERGY' ] =   8.4297
refs['qa1']['SAPT2+(3)(CCD)']['IND ENERGY'  ] =  -2.4535
refs['qa1']['SAPT2+(3)(CCD)']['DISP ENERGY' ] =  -2.1384
refs['qa1']['SAPT2+(3)(CCD)']['TOTAL ENERGY'] =  -4.3607
refs['qa1']['SAPT2+(3)DMP2'] = {}  # SAPT3M-SA-adz  #TEST
refs['qa1']['SAPT2+(3)DMP2']['ELST ENERGY' ] =  -8.1985
refs['qa1']['SAPT2+(3)DMP2']['EXCH ENERGY' ] =   8.4297
refs['qa1']['SAPT2+(3)DMP2']['IND ENERGY'  ] =  -2.6152
refs['qa1']['SAPT2+(3)DMP2']['DISP ENERGY' ] =  -2.1610
refs['qa1']['SAPT2+(3)DMP2']['TOTAL ENERGY'] =  -4.5450
refs['qa1']['SAPT2+(3)(CCD)DMP2'] = {}  # SAPT3CM-SA-adz  #TEST
refs['qa1']['SAPT2+(3)(CCD)DMP2']['ELST ENERGY' ] =  -8.1985
refs['qa1']['SAPT2+(3)(CCD)DMP2']['EXCH ENERGY' ] =   8.4297
refs['qa1']['SAPT2+(3)(CCD)DMP2']['IND ENERGY'  ] =  -2.6152
refs['qa1']['SAPT2+(3)(CCD)DMP2']['DISP ENERGY' ] =  -2.1384
refs['qa1']['SAPT2+(3)(CCD)DMP2']['TOTAL ENERGY'] =  -4.5224
# SAPT2+3
refs['qa1']['SAPT2+3'] = {}  # SAPT3F-SA-adz  #TEST
refs['qa1']['SAPT2+3']['ELST ENERGY' ] =  -8.1985
refs['qa1']['SAPT2+3']['EXCH ENERGY' ] =   8.4297
refs['qa1']['SAPT2+3']['IND ENERGY'  ] =  -2.4535
refs['qa1']['SAPT2+3']['DISP ENERGY' ] =  -2.2653
refs['qa1']['SAPT2+3']['TOTAL ENERGY'] =  -4.4876
refs['qa1']['SAPT2+3(CCD)'] = {}  # SAPT3FC-SA-adz (SAPTCCD)  #TEST
refs['qa1']['SAPT2+3(CCD)']['ELST ENERGY' ] =  -8.1985
refs['qa1']['SAPT2+3(CCD)']['EXCH ENERGY' ] =   8.4297
refs['qa1']['SAPT2+3(CCD)']['IND ENERGY'  ] =  -2.4535
refs['qa1']['SAPT2+3(CCD)']['DISP ENERGY' ] =  -2.2427
refs['qa1']['SAPT2+3(CCD)']['TOTAL ENERGY'] =  -4.4649
refs['qa1']['SAPT2+3DMP2'] = {}  # SAPT3FM-SA-adz  #TEST
refs['qa1']['SAPT2+3DMP2']['ELST ENERGY' ] =  -8.1985
refs['qa1']['SAPT2+3DMP2']['EXCH ENERGY' ] =   8.4297
refs['qa1']['SAPT2+3DMP2']['IND ENERGY'  ] =  -2.5225
refs['qa1']['SAPT2+3DMP2']['DISP ENERGY' ] =  -2.2653
refs['qa1']['SAPT2+3DMP2']['TOTAL ENERGY'] =  -4.5566
refs['qa1']['SAPT2+3(CCD)DMP2'] = {}  # SAPT3FCM-SA-adz (SAPTCCDM)  #TEST
refs['qa1']['SAPT2+3(CCD)DMP2']['ELST ENERGY' ] =  -8.1985
refs['qa1']['SAPT2+3(CCD)DMP2']['EXCH ENERGY' ] =   8.4297
refs['qa1']['SAPT2+3(CCD)DMP2']['IND ENERGY'  ] =  -2.5225
refs['qa1']['SAPT2+3(CCD)DMP2']['DISP ENERGY' ] =  -2.2427
refs['qa1']['SAPT2+3(CCD)DMP2']['TOTAL ENERGY'] =  -4.5339


# define what free sapt methods may be expected from first method
codes = [
['SAPT0', 'SCS-SAPT0', 'SSAPT0'],
['SSAPT0', 'SCS-SAPT0', 'SAPT0'],
['SAPT2', 'SAPT0', 'SSAPT0'],
['SAPT2+', 'SAPT0', 'SSAPT0', 'SAPT2', 'SAPT2+'],
['SAPT2+(CCD)', 'SAPT0', 'SSAPT0', 'SAPT2', 'SAPT2+'],
['SAPT2+DMP2', 'SAPT0', 'SSAPT0', 'SAPT2', 'SAPT2+'],
['SAPT2+(CCD)DMP2', 'SAPT0', 'SSAPT0', 'SAPT2', 'SAPT2+', 'SAPT2+(CCD)', 'SAPT2+DMP2'],
['SAPT2+(3)', 'SAPT0', 'SSAPT0', 'SAPT2', 'SAPT2+'],
['SAPT2+(3)(CCD)', 'SAPT0', 'SSAPT0', 'SAPT2', 'SAPT2+', 'SAPT2+(CCD)', 'SAPT2+(3)'],
['SAPT2+(3)DMP2', 'SAPT0', 'SSAPT0', 'SAPT2', 'SAPT2+', 'SAPT2+DMP2', 'SAPT2+(3)'],
['SAPT2+(3)(CCD)DMP2', 'SAPT0', 'SSAPT0', 'SAPT2', 'SAPT2+', 'SAPT2+(CCD)', 'SAPT2+DMP2', 'SAPT2+(CCD)DMP2', 'SAPT2+(3)', 'SAPT2+(3)(CCD)', 'SAPT2+(3)DMP2'],
['SAPT2+3', 'SAPT0', 'SSAPT0', 'SAPT2', 'SAPT2+', 'SAPT2+(3)'],
['SAPT2+3(CCD)', 'SAPT0', 'SSAPT0', 'SAPT2', 'SAPT2+', 'SAPT2+(CCD)', 'SAPT2+(3)', 'SAPT2+(3)(CCD)', 'SAPT2+3'],
['SAPT2+3DMP2', 'SAPT0', 'SSAPT0', 'SAPT2', 'SAPT2+', 'SAPT2+DMP2', 'SAPT2+(3)', 'SAPT2+(3)DMP2', 'SAPT2+3'],
['SAPT2+3(CCD)DMP2', 'SAPT0', 'SSAPT0', 'SAPT2', 'SAPT2+', 'SAPT2+(CCD)', 'SAPT2+DMP2', 'SAPT2+(CCD)DMP2', 'SAPT2+(3)', 'SAPT2+(3)(CCD)', 'SAPT2+(3)DMP2', 'SAPT2+(3)(CCD)DMP2', 'SAPT2+3', 'SAPT2+3(CCD)', 'SAPT2+3DMP2'],
]

# test with alpha = 1.0 against sapt benchmarking paper refs
set EXCH_SCALE_ALPHA 1.0
alpha = 'qa1'

for codelist in [codes[0], codes[2], codes[6], codes[14]]:
    method = codelist[0]
    energy(method)
    print('        <<< %s >>>' % method)
    for subcode in codelist:
        for term in ['ELST ENERGY', 'EXCH ENERGY', 'IND ENERGY', 'DISP ENERGY', 'TOTAL ENERGY']:
            pv = ' '.join([subcode, term])
            compare_values(refs[alpha][subcode][term], h2kc * get_variable(pv), digits, pv)  #TEST
            if subcode == method:
                gpv = ' '.join(['SAPT', term])
                compare_values(refs[alpha][subcode][term], h2kc * get_variable(gpv), digits, gpv)  #TEST
    compare_values(refs[alpha][method]['TOTAL ENERGY'], h2kc * get_variable('CURRENT ENERGY'), digits, 'CURRENT ENERGY')  #TEST

    clean()
    clean_variables()

# test with alpha = 0.0 against current JG sapt output
set EXCH_SCALE_ALPHA 0.0
alpha = 'a0'

for codelist in [codes[1], codes[3], codes[9]]:
    method = codelist[0]
    energy(method)
    print('        <<< %s >>>' % method)
    for subcode in codelist:
        if subcode == 'SCS-SAPT0':
            continue
        for term in ['ELST ENERGY', 'EXCH ENERGY', 'IND ENERGY', 'DISP ENERGY', 'TOTAL ENERGY']:
            pv = ' '.join([subcode, term])
            compare_values(refs[alpha][subcode][term], h2kc * get_variable(pv), digits, pv)  #TEST
            if subcode == method:
                gpv = ' '.join(['SAPT', term])
                compare_values(refs[alpha][subcode][term], h2kc * get_variable(gpv), digits, gpv)  #TEST
    compare_values(refs[alpha][method]['TOTAL ENERGY'], h2kc * get_variable('CURRENT ENERGY'), digits, 'CURRENT ENERGY')  #TEST

    clean()
    clean_variables()

--------------------------------------------------------------------------
	Default mem set correctly.........................................PASSED

  Memory set to 572.205 MiB by Python driver.
	Given MiB mem set correctly by fn.................................PASSED

  Memory set to 600.000 MiB by Python driver.
	Given MiB mem set correctly by parse..............................PASSED
  SAPT does not make use of molecular symmetry, further calculations in C1 point group.

  //>>>>>>>>>>>>>>>>>>>>>>>>>>>>>>>>>>>//
  //              Dimer HF             //
  //<<<<<<<<<<<<<<<<<<<<<<<<<<<<<<<<<<<//


*** tstart() called on psinet
*** at Mon May 15 15:39:32 2017

   => Loading Basis Set <=

    Name: AUG-CC-PVDZ
    Role: ORBITAL
    Keyword: BASIS
    atoms 1, 4     entry O          line   243 file /home/psilocaluser/gits/hrw-direct/objdir4/stage/usr/local/psi4/share/psi4/basis/aug-cc-pvdz.gbs 
    atoms 2-3, 5-6 entry H          line    35 file /home/psilocaluser/gits/hrw-direct/objdir4/stage/usr/local/psi4/share/psi4/basis/aug-cc-pvdz.gbs 


         ---------------------------------------------------------
                                   SCF
            by Justin Turney, Rob Parrish, and Andy Simmonett
                              RHF Reference
                        1 Threads,    600 MiB Core
         ---------------------------------------------------------

  ==> Geometry <==

    Molecular point group: c1
    Full point group: Cs

    Geometry (in Angstrom), charge = 0, multiplicity = 1:

       Center              X                  Y                   Z               Mass       
    ------------   -----------------  -----------------  -----------------  -----------------
           O         -1.485163346097    -0.114724564047     0.000000000000    15.994914619560
           H         -1.868415346097     0.762298435953     0.000000000000     1.007825032070
           H         -0.533833346097     0.040507435953     0.000000000000     1.007825032070
           O          1.416468653903     0.111264435953     0.000000000000    15.994914619560
           H          1.746241653903    -0.373945564047    -0.758561000000     1.007825032070
           H          1.746241653903    -0.373945564047     0.758561000000     1.007825032070

  Running in c1 symmetry.

  Rotational constants: A =      7.15151  B =      0.21457  C =      0.21447 [cm^-1]
  Rotational constants: A = 214396.91676  B =   6432.69056  C =   6429.61813 [MHz]
  Nuclear repulsion =   36.662847852755299

  Charge       = 0
  Multiplicity = 1
  Electrons    = 20
  Nalpha       = 10
  Nbeta        = 10

  ==> Algorithm <==

  SCF Algorithm Type is DF.
  DIIS enabled.
  MOM disabled.
  Fractional occupation disabled.
  Guess Type is SAD.
  Energy threshold   = 1.00e-08
  Density threshold  = 1.00e-08
  Integral threshold = 0.00e+00

  ==> Primary Basis <==

  Basis Set: AUG-CC-PVDZ
    Blend: AUG-CC-PVDZ
    Number of shells: 38
    Number of basis function: 82
    Number of Cartesian functions: 86
    Spherical Harmonics?: true
    Max angular momentum: 2

   => Loading Basis Set <=

    Name: (AUG-CC-PVDZ AUX)
    Role: JKFIT
    Keyword: DF_BASIS_SCF
    atoms 1, 4     entry O          line   269 file /home/psilocaluser/gits/hrw-direct/objdir4/stage/usr/local/psi4/share/psi4/basis/aug-cc-pvdz-jkfit.gbs 
    atoms 2-3, 5-6 entry H          line    69 file /home/psilocaluser/gits/hrw-direct/objdir4/stage/usr/local/psi4/share/psi4/basis/aug-cc-pvdz-jkfit.gbs 

  ==> Pre-Iterations <==

   -------------------------------------------------------
    Irrep   Nso     Nmo     Nalpha   Nbeta   Ndocc  Nsocc
   -------------------------------------------------------
     A         82      82       0       0       0       0
   -------------------------------------------------------
    Total      82      82      10      10      10       0
   -------------------------------------------------------

  ==> Integral Setup <==

  ==> DFJK: Density-Fitted J/K Matrices <==

    J tasked:                  Yes
    K tasked:                  Yes
    wK tasked:                  No
    OpenMP threads:              1
    Integrals threads:           1
    Memory (MB):               450
    Algorithm:                Core
    Integral Cache:           SAVE
    Schwarz Cutoff:          1E-12
    Fitting Condition:       1E-12

   => Auxiliary Basis Set <=

  Basis Set: (AUG-CC-PVDZ AUX)
    Blend: AUG-CC-PVDZ-JKFIT
    Number of shells: 104
    Number of basis function: 300
    Number of Cartesian functions: 342
    Spherical Harmonics?: true
    Max angular momentum: 3

  Minimum eigenvalue in the overlap matrix is 1.5458174156E-03.
  Using Symmetric Orthogonalization.

  SCF Guess: Superposition of Atomic Densities via on-the-fly atomic UHF.

  ==> Iterations <==

                           Total Energy        Delta E     RMS |[F,P]|

   @DF-RHF iter   0:  -152.09889080344215   -1.52099e+02   2.98949e-02 
   @DF-RHF iter   1:  -152.01768003880912    8.12108e-02   4.79638e-03 
   @DF-RHF iter   2:  -152.07170323529667   -5.40232e-02   2.48861e-03 DIIS
   @DF-RHF iter   3:  -152.08709782693427   -1.53946e-02   4.91527e-04 DIIS
   @DF-RHF iter   4:  -152.08837204198508   -1.27422e-03   1.35409e-04 DIIS
   @DF-RHF iter   5:  -152.08854568101373   -1.73639e-04   3.67840e-05 DIIS
   @DF-RHF iter   6:  -152.08855819908641   -1.25181e-05   1.51954e-05 DIIS
   @DF-RHF iter   7:  -152.08855920774320   -1.00866e-06   3.23719e-06 DIIS
   @DF-RHF iter   8:  -152.08855930555168   -9.78085e-08   6.44141e-07 DIIS
   @DF-RHF iter   9:  -152.08855930998868   -4.43700e-09   1.36298e-07 DIIS
   @DF-RHF iter  10:  -152.08855931016416   -1.75476e-10   3.02465e-08 DIIS
   @DF-RHF iter  11:  -152.08855931017274   -8.58336e-12   5.04772e-09 DIIS

  ==> Post-Iterations <==

    Orbital Energies (a.u.)
    -----------------------

    Doubly Occupied:                                                      

       1A    -20.602639     2A    -20.546335     3A     -1.383460  
       4A     -1.326570     5A     -0.743791     6A     -0.696317  
       7A     -0.615222     8A     -0.561295     9A     -0.530321  
      10A     -0.481154  

    Virtual:                                                              

      11A      0.028509    12A      0.055390    13A      0.056015  
      14A      0.090965    15A      0.156904    16A      0.185106  
      17A      0.211368    18A      0.214763    19A      0.226647  
      20A      0.236784    21A      0.261716    22A      0.284391  
      23A      0.294520    24A      0.332786    25A      0.351553  
      26A      0.364132    27A      0.382424    28A      0.441710  
      29A      0.458373    30A      0.486897    31A      0.524480  
      32A      0.534279    33A      0.553359    34A      0.608919  
      35A      0.647361    36A      0.667426    37A      0.682457  
      38A      0.787323    39A      0.800411    40A      0.919334  
      41A      0.967205    42A      1.036646    43A      1.116578  
      44A      1.145280    45A      1.147183    46A      1.178827  
      47A      1.208787    48A      1.221972    49A      1.354001  
      50A      1.380942    51A      1.437306    52A      1.472782  
      53A      1.593147    54A      1.597655    55A      1.641265  
      56A      1.964711    57A      2.003803    58A      2.017525  
      59A      2.043660    60A      2.071695    61A      2.157424  
      62A      2.274268    63A      2.337492    64A      2.461918  
      65A      2.472755    66A      2.580463    67A      2.620593  
      68A      2.700541    69A      2.771041    70A      2.791336  
      71A      3.018081    72A      3.122743    73A      3.694159  
      74A      3.698103    75A      3.709431    76A      3.741715  
      77A      3.771102    78A      3.790699    79A      4.043223  
      80A      4.159440    81A      4.287651    82A      4.410083  

    Final Occupation by Irrep:
              A 
    DOCC [    10 ]

  Energy converged.

  @DF-RHF Final Energy:  -152.08855931017274

   => Energetics <=

    Nuclear Repulsion Energy =             36.6628478527552986
    One-Electron Energy =                -282.5286053094907857
    Two-Electron Energy =                  93.7771981465627249
    DFT Exchange-Correlation Energy =       0.0000000000000000
    Empirical Dispersion Energy =           0.0000000000000000
    PCM Polarization Energy =               0.0000000000000000
    EFP Energy =                            0.0000000000000000
    Total Energy =                       -152.0885593101727409



Properties will be evaluated at   0.000000,   0.000000,   0.000000 Bohr

Properties computed using the SCF density matrix

  Nuclear Dipole Moment: (a.u.)
     X:     1.0217      Y:     0.0515      Z:     0.0000

  Electronic Dipole Moment: (a.u.)
     X:     0.0163      Y:    -0.0169      Z:    -0.0000

  Dipole Moment: (a.u.)
     X:     1.0380      Y:     0.0345      Z:    -0.0000     Total:     1.0386

  Dipole Moment: (Debye)
     X:     2.6383      Y:     0.0878      Z:    -0.0000     Total:     2.6398


*** tstop() called on psinet at Mon May 15 15:39:34 2017
Module time:
	user time   =       1.09 seconds =       0.02 minutes
	system time =       0.04 seconds =       0.00 minutes
	total time  =          2 seconds =       0.03 minutes
Total time:
	user time   =       1.09 seconds =       0.02 minutes
	system time =       0.04 seconds =       0.00 minutes
	total time  =          2 seconds =       0.03 minutes

  //>>>>>>>>>>>>>>>>>>>>>>>>>>>>>>>>>>>//
  //            Monomer A HF           //
  //<<<<<<<<<<<<<<<<<<<<<<<<<<<<<<<<<<<//


*** tstart() called on psinet
*** at Mon May 15 15:39:34 2017

   => Loading Basis Set <=

    Name: AUG-CC-PVDZ
    Role: ORBITAL
    Keyword: BASIS
    atoms 1, 4     entry O          line   243 file /home/psilocaluser/gits/hrw-direct/objdir4/stage/usr/local/psi4/share/psi4/basis/aug-cc-pvdz.gbs 
    atoms 2-3, 5-6 entry H          line    35 file /home/psilocaluser/gits/hrw-direct/objdir4/stage/usr/local/psi4/share/psi4/basis/aug-cc-pvdz.gbs 


         ---------------------------------------------------------
                                   SCF
            by Justin Turney, Rob Parrish, and Andy Simmonett
                              RHF Reference
                        1 Threads,    600 MiB Core
         ---------------------------------------------------------

  ==> Geometry <==

    Molecular point group: c1
    Full point group: Cs

    Geometry (in Angstrom), charge = 0, multiplicity = 1:

       Center              X                  Y                   Z               Mass       
    ------------   -----------------  -----------------  -----------------  -----------------
           O         -1.485163346097    -0.114724564047     0.000000000000    15.994914619560
           H         -1.868415346097     0.762298435953     0.000000000000     1.007825032070
           H         -0.533833346097     0.040507435953     0.000000000000     1.007825032070
           O(Gh)      1.416468653903     0.111264435953     0.000000000000    15.994914619560
           H(Gh)      1.746241653903    -0.373945564047    -0.758561000000     1.007825032070
           H(Gh)      1.746241653903    -0.373945564047     0.758561000000     1.007825032070

  Running in c1 symmetry.

  Rotational constants: A =      7.15151  B =      0.21457  C =      0.21447 [cm^-1]
  Rotational constants: A = 214396.91676  B =   6432.69056  C =   6429.61813 [MHz]
  Nuclear repulsion =    9.163830145965930

  Charge       = 0
  Multiplicity = 1
  Electrons    = 10
  Nalpha       = 5
  Nbeta        = 5

  ==> Algorithm <==

  SCF Algorithm Type is DF.
  DIIS enabled.
  MOM disabled.
  Fractional occupation disabled.
  Guess Type is SAD.
  Energy threshold   = 1.00e-08
  Density threshold  = 1.00e-08
  Integral threshold = 0.00e+00

  ==> Primary Basis <==

  Basis Set: AUG-CC-PVDZ
    Blend: AUG-CC-PVDZ
    Number of shells: 38
    Number of basis function: 82
    Number of Cartesian functions: 86
    Spherical Harmonics?: true
    Max angular momentum: 2

   => Loading Basis Set <=

    Name: (AUG-CC-PVDZ AUX)
    Role: JKFIT
    Keyword: DF_BASIS_SCF
    atoms 1, 4     entry O          line   269 file /home/psilocaluser/gits/hrw-direct/objdir4/stage/usr/local/psi4/share/psi4/basis/aug-cc-pvdz-jkfit.gbs 
    atoms 2-3, 5-6 entry H          line    69 file /home/psilocaluser/gits/hrw-direct/objdir4/stage/usr/local/psi4/share/psi4/basis/aug-cc-pvdz-jkfit.gbs 

  ==> Pre-Iterations <==

   -------------------------------------------------------
    Irrep   Nso     Nmo     Nalpha   Nbeta   Ndocc  Nsocc
   -------------------------------------------------------
     A         82      82       0       0       0       0
   -------------------------------------------------------
    Total      82      82       5       5       5       0
   -------------------------------------------------------

  ==> Integral Setup <==

  ==> DFJK: Density-Fitted J/K Matrices <==

    J tasked:                  Yes
    K tasked:                  Yes
    wK tasked:                  No
    OpenMP threads:              1
    Integrals threads:           1
    Memory (MB):               450
    Algorithm:                Core
    Integral Cache:           LOAD
    Schwarz Cutoff:          1E-12
    Fitting Condition:       1E-12

   => Auxiliary Basis Set <=

  Basis Set: (AUG-CC-PVDZ AUX)
    Blend: AUG-CC-PVDZ-JKFIT
    Number of shells: 104
    Number of basis function: 300
    Number of Cartesian functions: 342
    Spherical Harmonics?: true
    Max angular momentum: 3

  Minimum eigenvalue in the overlap matrix is 1.5458174156E-03.
  Using Symmetric Orthogonalization.

  SCF Guess: Superposition of Atomic Densities via on-the-fly atomic UHF.

  ==> Iterations <==

                           Total Energy        Delta E     RMS |[F,P]|

   @DF-RHF iter   0:   -76.05483328352237   -7.60548e+01   2.09197e-02 
   @DF-RHF iter   1:   -75.99759253331895    5.72408e-02   3.72250e-03 
   @DF-RHF iter   2:   -76.02991945562752   -3.23269e-02   2.04091e-03 DIIS
   @DF-RHF iter   3:   -76.04030508673819   -1.03856e-02   3.88010e-04 DIIS
   @DF-RHF iter   4:   -76.04112693502545   -8.21848e-04   1.10478e-04 DIIS
   @DF-RHF iter   5:   -76.04124228463625   -1.15350e-04   2.51399e-05 DIIS
   @DF-RHF iter   6:   -76.04124947107597   -7.18644e-06   4.64165e-06 DIIS
   @DF-RHF iter   7:   -76.04124969998374   -2.28908e-07   9.13939e-07 DIIS
   @DF-RHF iter   8:   -76.04124970934741   -9.36367e-09   1.67857e-07 DIIS
   @DF-RHF iter   9:   -76.04124970961117   -2.63753e-10   3.47638e-08 DIIS
   @DF-RHF iter  10:   -76.04124970962026   -9.09495e-12   5.75089e-09 DIIS

  ==> Post-Iterations <==

    Orbital Energies (a.u.)
    -----------------------

    Doubly Occupied:                                                      

       1A    -20.577858     2A     -1.355087     3A     -0.717142  
       4A     -0.585307     5A     -0.509181  

    Virtual:                                                              

       6A      0.026528     7A      0.050726     8A      0.061604  
       9A      0.086392    10A      0.129583    11A      0.147351  
      12A      0.188792    13A      0.191379    14A      0.216554  
      15A      0.226859    16A      0.233498    17A      0.278536  
      18A      0.337937    19A      0.361009    20A      0.365602  
      21A      0.392758    22A      0.400796    23A      0.416682  
      24A      0.440286    25A      0.445310    26A      0.490038  
      27A      0.520808    28A      0.531066    29A      0.565751  
      30A      0.626264    31A      0.636729    32A      0.659655  
      33A      0.752311    34A      0.841446    35A      0.938922  
      36A      0.978936    37A      1.107481    38A      1.108419  
      39A      1.145292    40A      1.153650    41A      1.190741  
      42A      1.199682    43A      1.269429    44A      1.290489  
      45A      1.334965    46A      1.345243    47A      1.387876  
      48A      1.460914    49A      1.499151    50A      1.590279  
      51A      1.759609    52A      2.017361    53A      2.019199  
      54A      2.063881    55A      2.111443    56A      2.257187  
      57A      2.381281    58A      2.509103    59A      2.520118  
      60A      2.535996    61A      2.575036    62A      2.697583  
      63A      2.748538    64A      2.823618    65A      2.987136  
      66A      3.444151    67A      3.680922    68A      3.715098  
      69A      3.743887    70A      3.902466    71A      4.082346  
      72A      4.138139    73A      4.358595    74A      4.954505  
      75A      4.958024    76A      5.036448    77A      5.104272  
      78A      5.366871    79A      5.935280    80A      6.625257  
      81A      7.039183    82A     33.536834  

    Final Occupation by Irrep:
              A 
    DOCC [     5 ]

  Energy converged.

  @DF-RHF Final Energy:   -76.04124970962026

   => Energetics <=

    Nuclear Repulsion Energy =              9.1638301459659299
    One-Electron Energy =                -122.9210104733447508
    Two-Electron Energy =                  37.7159306177585520
    DFT Exchange-Correlation Energy =       0.0000000000000000
    Empirical Dispersion Energy =           0.0000000000000000
    PCM Polarization Energy =               0.0000000000000000
    EFP Energy =                            0.0000000000000000
    Total Energy =                        -76.0412497096202742



Properties will be evaluated at   0.000000,   0.000000,   0.000000 Bohr

Properties computed using the SCF density matrix

  Nuclear Dipole Moment: (a.u.)
     X:   -26.9920      Y:    -0.2173      Z:     0.0000

  Electronic Dipole Moment: (a.u.)
     X:    27.3712      Y:     0.9088      Z:     0.0000

  Dipole Moment: (a.u.)
     X:     0.3792      Y:     0.6915      Z:     0.0000     Total:     0.7887

  Dipole Moment: (Debye)
     X:     0.9638      Y:     1.7576      Z:     0.0000     Total:     2.0046


*** tstop() called on psinet at Mon May 15 15:39:34 2017
Module time:
	user time   =       0.78 seconds =       0.01 minutes
	system time =       0.02 seconds =       0.00 minutes
	total time  =          0 seconds =       0.00 minutes
Total time:
	user time   =       1.87 seconds =       0.03 minutes
	system time =       0.06 seconds =       0.00 minutes
	total time  =          2 seconds =       0.03 minutes

  //>>>>>>>>>>>>>>>>>>>>>>>>>>>>>>>>>>>//
  //            Monomer B HF           //
  //<<<<<<<<<<<<<<<<<<<<<<<<<<<<<<<<<<<//


*** tstart() called on psinet
*** at Mon May 15 15:39:34 2017

   => Loading Basis Set <=

    Name: AUG-CC-PVDZ
    Role: ORBITAL
    Keyword: BASIS
    atoms 1, 4     entry O          line   243 file /home/psilocaluser/gits/hrw-direct/objdir4/stage/usr/local/psi4/share/psi4/basis/aug-cc-pvdz.gbs 
    atoms 2-3, 5-6 entry H          line    35 file /home/psilocaluser/gits/hrw-direct/objdir4/stage/usr/local/psi4/share/psi4/basis/aug-cc-pvdz.gbs 


         ---------------------------------------------------------
                                   SCF
            by Justin Turney, Rob Parrish, and Andy Simmonett
                              RHF Reference
                        1 Threads,    600 MiB Core
         ---------------------------------------------------------

  ==> Geometry <==

    Molecular point group: c1
    Full point group: Cs

    Geometry (in Angstrom), charge = 0, multiplicity = 1:

       Center              X                  Y                   Z               Mass       
    ------------   -----------------  -----------------  -----------------  -----------------
           O(Gh)     -1.485163346097    -0.114724564047     0.000000000000    15.994914619560
           H(Gh)     -1.868415346097     0.762298435953     0.000000000000     1.007825032070
           H(Gh)     -0.533833346097     0.040507435953     0.000000000000     1.007825032070
           O          1.416468653903     0.111264435953     0.000000000000    15.994914619560
           H          1.746241653903    -0.373945564047    -0.758561000000     1.007825032070
           H          1.746241653903    -0.373945564047     0.758561000000     1.007825032070

  Running in c1 symmetry.

  Rotational constants: A =      7.15151  B =      0.21457  C =      0.21447 [cm^-1]
  Rotational constants: A = 214396.91676  B =   6432.69056  C =   6429.61813 [MHz]
  Nuclear repulsion =    9.178038904903588

  Charge       = 0
  Multiplicity = 1
  Electrons    = 10
  Nalpha       = 5
  Nbeta        = 5

  ==> Algorithm <==

  SCF Algorithm Type is DF.
  DIIS enabled.
  MOM disabled.
  Fractional occupation disabled.
  Guess Type is SAD.
  Energy threshold   = 1.00e-08
  Density threshold  = 1.00e-08
  Integral threshold = 0.00e+00

  ==> Primary Basis <==

  Basis Set: AUG-CC-PVDZ
    Blend: AUG-CC-PVDZ
    Number of shells: 38
    Number of basis function: 82
    Number of Cartesian functions: 86
    Spherical Harmonics?: true
    Max angular momentum: 2

   => Loading Basis Set <=

    Name: (AUG-CC-PVDZ AUX)
    Role: JKFIT
    Keyword: DF_BASIS_SCF
    atoms 1, 4     entry O          line   269 file /home/psilocaluser/gits/hrw-direct/objdir4/stage/usr/local/psi4/share/psi4/basis/aug-cc-pvdz-jkfit.gbs 
    atoms 2-3, 5-6 entry H          line    69 file /home/psilocaluser/gits/hrw-direct/objdir4/stage/usr/local/psi4/share/psi4/basis/aug-cc-pvdz-jkfit.gbs 

  ==> Pre-Iterations <==

   -------------------------------------------------------
    Irrep   Nso     Nmo     Nalpha   Nbeta   Ndocc  Nsocc
   -------------------------------------------------------
     A         82      82       0       0       0       0
   -------------------------------------------------------
    Total      82      82       5       5       5       0
   -------------------------------------------------------

  ==> Integral Setup <==

  ==> DFJK: Density-Fitted J/K Matrices <==

    J tasked:                  Yes
    K tasked:                  Yes
    wK tasked:                  No
    OpenMP threads:              1
    Integrals threads:           1
    Memory (MB):               450
    Algorithm:                Core
    Integral Cache:           LOAD
    Schwarz Cutoff:          1E-12
    Fitting Condition:       1E-12

   => Auxiliary Basis Set <=

  Basis Set: (AUG-CC-PVDZ AUX)
    Blend: AUG-CC-PVDZ-JKFIT
    Number of shells: 104
    Number of basis function: 300
    Number of Cartesian functions: 342
    Spherical Harmonics?: true
    Max angular momentum: 3

  Minimum eigenvalue in the overlap matrix is 1.5458174156E-03.
  Using Symmetric Orthogonalization.

  SCF Guess: Superposition of Atomic Densities via on-the-fly atomic UHF.

  ==> Iterations <==

                           Total Energy        Delta E     RMS |[F,P]|

   @DF-RHF iter   0:   -75.98235456751542   -7.59824e+01   2.08127e-02 
   @DF-RHF iter   1:   -76.00815660469674   -2.58020e-02   3.29641e-03 
   @DF-RHF iter   2:   -76.03279912320399   -2.46425e-02   1.79854e-03 DIIS
   @DF-RHF iter   3:   -76.04085985038090   -8.06073e-03   3.28499e-04 DIIS
   @DF-RHF iter   4:   -76.04150551879042   -6.45668e-04   1.02742e-04 DIIS
   @DF-RHF iter   5:   -76.04161532583554   -1.09807e-04   2.50235e-05 DIIS
   @DF-RHF iter   6:   -76.04162283722532   -7.51139e-06   3.69552e-06 DIIS
   @DF-RHF iter   7:   -76.04162297102040   -1.33795e-07   6.00928e-07 DIIS
   @DF-RHF iter   8:   -76.04162297473754   -3.71713e-09   1.33742e-07 DIIS
   @DF-RHF iter   9:   -76.04162297491263   -1.75092e-10   3.07974e-08 DIIS
   @DF-RHF iter  10:   -76.04162297492117   -8.54072e-12   5.21903e-09 DIIS

  ==> Post-Iterations <==

    Orbital Energies (a.u.)
    -----------------------

    Doubly Occupied:                                                      

       1A    -20.577709     2A     -1.355581     3A     -0.718219  
       4A     -0.585007     5A     -0.509212  

    Virtual:                                                              

       6A      0.032632     7A      0.054318     8A      0.057834  
       9A      0.083164    10A      0.154115    11A      0.171149  
      12A      0.176338    13A      0.189705    14A      0.218522  
      15A      0.232962    16A      0.240222    17A      0.280124  
      18A      0.298204    19A      0.344974    20A      0.386471  
      21A      0.403055    22A      0.409576    23A      0.460879  
      24A      0.462722    25A      0.483575    26A      0.531414  
      27A      0.548614    28A      0.557343    29A      0.559268  
      30A      0.639489    31A      0.674849    32A      0.677877  
      33A      0.755276    34A      0.821005    35A      0.938460  
      36A      0.951802    37A      0.972541    38A      1.151505  
      39A      1.157906    40A      1.162603    41A      1.210530  
      42A      1.228959    43A      1.291515    44A      1.339092  
      45A      1.342961    46A      1.427749    47A      1.458943  
      48A      1.490231    49A      1.515925    50A      1.605489  
      51A      1.786836    52A      2.005217    53A      2.096315  
      54A      2.164087    55A      2.208994    56A      2.366911  
      57A      2.400893    58A      2.415593    59A      2.484018  
      60A      2.551450    61A      2.639341    62A      2.682989  
      63A      2.727123    64A      2.784583    65A      3.091250  
      66A      3.492474    67A      3.725266    68A      3.727066  
      69A      3.821335    70A      3.960177    71A      4.064947  
      72A      4.088597    73A      4.314045    74A      4.913073  
      75A      4.955873    76A      5.013658    77A      5.205190  
      78A      5.492538    79A      5.702443    80A      6.695068  
      81A      7.147393    82A     33.583918  

    Final Occupation by Irrep:
              A 
    DOCC [     5 ]

  Energy converged.

  @DF-RHF Final Energy:   -76.04162297492117

   => Energetics <=

    Nuclear Repulsion Energy =              9.1780389049035875
    One-Electron Energy =                -122.9478671869202202
    Two-Electron Energy =                  37.7282053070954646
    DFT Exchange-Correlation Energy =       0.0000000000000000
    Empirical Dispersion Energy =           0.0000000000000000
    PCM Polarization Energy =               0.0000000000000000
    EFP Energy =                            0.0000000000000000
    Total Energy =                        -76.0416229749211681



Properties will be evaluated at   0.000000,   0.000000,   0.000000 Bohr

Properties computed using the SCF density matrix

  Nuclear Dipole Moment: (a.u.)
     X:    28.0137      Y:     0.2688      Z:     0.0000

  Electronic Dipole Moment: (a.u.)
     X:   -27.5751      Y:    -0.9172      Z:     0.0000

  Dipole Moment: (a.u.)
     X:     0.4386      Y:    -0.6484      Z:     0.0000     Total:     0.7828

  Dipole Moment: (Debye)
     X:     1.1148      Y:    -1.6481      Z:     0.0000     Total:     1.9897


*** tstop() called on psinet at Mon May 15 15:39:35 2017
Module time:
	user time   =       0.77 seconds =       0.01 minutes
	system time =       0.02 seconds =       0.00 minutes
	total time  =          1 seconds =       0.02 minutes
Total time:
	user time   =       2.65 seconds =       0.04 minutes
	system time =       0.08 seconds =       0.00 minutes
	total time  =          3 seconds =       0.05 minutes
   => Loading Basis Set <=

    Name: (AUG-CC-PVDZ AUX)
    Role: RIFIT
    Keyword: DF_BASIS_SAPT
    atoms 1, 4     entry O          line   203 file /home/psilocaluser/gits/hrw-direct/objdir4/stage/usr/local/psi4/share/psi4/basis/aug-cc-pvdz-ri.gbs 
    atoms 2-3, 5-6 entry H          line    29 file /home/psilocaluser/gits/hrw-direct/objdir4/stage/usr/local/psi4/share/psi4/basis/aug-cc-pvdz-ri.gbs 


  //>>>>>>>>>>>>>>>>>>>>>>>>>>>>>>>>>>>//
  //               SAPT0               //
  //<<<<<<<<<<<<<<<<<<<<<<<<<<<<<<<<<<<//


*** tstart() called on psinet
*** at Mon May 15 15:39:35 2017

        SAPT0  
    Ed Hohenstein
     6 June 2009

      Orbital Information
  --------------------------
    NSO        =        82
    NMO        =        82
    NRI        =       236
    NOCC A     =         5
    NOCC B     =         5
    FOCC A     =         1
    FOCC B     =         1
    NVIR A     =        77
    NVIR B     =        77

    Elst10,r            =    -0.013375429364 [Eh]
    Exch10              =     0.011218223502 [Eh]
    Exch10 (S^2)        =     0.011138027617 [Eh]

    Iter     Energy [mEh]          dE [mEh]         Residual      Time [s]
       1      -1.25767951       1.257679511       5.055149202             0
       2      -1.42135191       0.163672395       1.727135537             0
       3      -1.44410874       0.022756838       0.476944313             0
       4      -1.44070103      -0.003407712       0.148444666             0
       5      -1.43922717      -0.001473866       0.022049852             0
       6      -1.43960545       0.000378287       0.003861157             0
       7      -1.43957061      -0.000034845       0.000846023             0
       8      -1.43957126       0.000000655       0.000173502             0
       9      -1.43957231       0.000001048       0.000036634             0
      10      -1.43957208      -0.000000235       0.000006012             0
      11      -1.43957210       0.000000026       0.000000790             0

    CHF Iterations converged


    Iter     Energy [mEh]          dE [mEh]         Residual      Time [s]
       1      -2.47297826       2.472978256       9.562665226             0
       2      -3.08900959       0.616031334       3.599499485             0
       3      -3.14879156       0.059781975       0.939801450             0
       4      -3.13782787      -0.010963690       0.223449168             0
       5      -3.13493360      -0.002894277       0.041469902             0
       6      -3.13583171       0.000898110       0.007239804             0
       7      -3.13572524      -0.000106468       0.001498165             0
       8      -3.13573745       0.000012211       0.000303069             0
       9      -3.13573605      -0.000001396       0.000059037             0
      10      -3.13573609       0.000000035       0.000016623             0
      11      -3.13573613       0.000000044       0.000003158             0
      12      -3.13573612      -0.000000011       0.000000377             0

    CHF Iterations converged

    Ind20,r (A<-B)      =    -0.001439572102 [Eh]
    Ind20,r (B<-A)      =    -0.003135736123 [Eh]
    Ind20,r             =    -0.004575308225 [Eh]
    Exch-Ind20,r (A<-B) =     0.000948667500 [Eh]
    Exch-Ind20,r (B<-A) =     0.001529617647 [Eh]
    Exch-Ind20,r        =     0.002478285148 [Eh]
    Disp20              =    -0.003542919423 [Eh]
    Disp20 (SS)         =    -0.001771459712 [Eh]
    Disp20 (OS)         =    -0.001771459712 [Eh]
    Exch-Disp20         =     0.000645455917 [Eh]
    Exch-Disp20 (SS)    =     0.000399887618 [Eh]
    Exch-Disp20 (OS)    =     0.000245568299 [Eh]

    SAPT Results 
  --------------------------------------------------------------------------------------------------------
    Electrostatics                -13.37542936 [mEh]      -8.39320899 [kcal/mol]     -35.11718980 [kJ/mol]
      Elst10,r                    -13.37542936 [mEh]      -8.39320899 [kcal/mol]     -35.11718980 [kJ/mol]

    Exchange                       11.21822350 [mEh]       7.03954182 [kcal/mol]      29.45344580 [kJ/mol]
      Exch10                       11.21822350 [mEh]       7.03954182 [kcal/mol]      29.45344580 [kJ/mol]
      Exch10(S^2)                  11.13802762 [mEh]       6.98921814 [kcal/mol]      29.24289151 [kJ/mol]

    Induction                      -3.52941977 [mEh]      -2.21474443 [kcal/mol]      -9.26649160 [kJ/mol]
      Ind20,r                      -4.57530822 [mEh]      -2.87104938 [kcal/mol]     -12.01247174 [kJ/mol]
      Exch-Ind20,r                  2.47828515 [mEh]       1.55514747 [kcal/mol]       6.50673766 [kJ/mol]
      delta HF,r (2)               -1.43239669 [mEh]      -0.89884253 [kcal/mol]      -3.76075751 [kJ/mol]

    Dispersion                     -2.89746351 [mEh]      -1.81818588 [kcal/mol]      -7.60729044 [kJ/mol]
      Disp20                       -3.54291942 [mEh]      -2.22321560 [kcal/mol]      -9.30193495 [kJ/mol]
      Exch-Disp20                   0.64545592 [mEh]       0.40502972 [kcal/mol]       1.69464451 [kJ/mol]
      Disp20 (SS)                  -1.77145971 [mEh]      -1.11160780 [kcal/mol]      -4.65096747 [kJ/mol]
      Disp20 (OS)                  -1.77145971 [mEh]      -1.11160780 [kcal/mol]      -4.65096747 [kJ/mol]
      Exch-Disp20 (SS)              0.39988762 [mEh]       0.25093328 [kcal/mol]       1.04990494 [kJ/mol]
      Exch-Disp20 (OS)              0.24556830 [mEh]       0.15409644 [kcal/mol]       0.64473957 [kJ/mol]

  Total HF                         -5.68662563 [mEh]      -3.56841161 [kcal/mol]     -14.93023560 [kJ/mol]
  Total SAPT0                      -8.58408914 [mEh]      -5.38659748 [kcal/mol]     -22.53752603 [kJ/mol]

  Special recipe for scaled SAPT0 (see Manual):
    Electrostatics sSAPT0         -13.37542936 [mEh]      -8.39320899 [kcal/mol]     -35.11718980 [kJ/mol]
    Exchange sSAPT0                11.21822350 [mEh]       7.03954182 [kcal/mol]      29.45344580 [kJ/mol]
    Induction sSAPT0               -3.47550105 [mEh]      -2.18090993 [kcal/mol]      -9.12492800 [kJ/mol]
    Dispersion sSAPT0              -2.88342067 [mEh]      -1.80937386 [kcal/mol]      -7.57042096 [kJ/mol]
  Total sSAPT0                     -8.51612758 [mEh]      -5.34395096 [kcal/mol]     -22.35909296 [kJ/mol]
  --------------------------------------------------------------------------------------------------------

    SAPT Results ==> ALL S2 TERMS SCALED (see Manual) <== 

    Scaling factor (Exch10/Exch10(S^2))^{Alpha} =     1.007200
    with Alpha =     1.000000 
  --------------------------------------------------------------------------------------------------------
    Electrostatics                -13.37542936 [mEh]      -8.39320899 [kcal/mol]     -35.11718980 [kJ/mol]
      Elst10,r                    -13.37542936 [mEh]      -8.39320899 [kcal/mol]     -35.11718980 [kJ/mol]

    Exchange sc.                   11.21822350 [mEh]       7.03954182 [kcal/mol]      29.45344580 [kJ/mol]
      Exch10                       11.21822350 [mEh]       7.03954182 [kcal/mol]      29.45344580 [kJ/mol]
      Exch10(S^2)                  11.13802762 [mEh]       6.98921814 [kcal/mol]      29.24289151 [kJ/mol]

    Induction sc.                  -3.52941977 [mEh]      -2.21474443 [kcal/mol]      -9.26649160 [kJ/mol]
      Ind20,r                      -4.57530822 [mEh]      -2.87104938 [kcal/mol]     -12.01247174 [kJ/mol]
      Exch-Ind20,r sc.              2.49612927 [mEh]       1.56634483 [kcal/mol]       6.55358739 [kJ/mol]
      delta HF,r (2) sc.           -1.45024081 [mEh]      -0.91003988 [kcal/mol]      -3.80760724 [kJ/mol]

    Dispersion sc.                 -2.89281610 [mEh]      -1.81526959 [kcal/mol]      -7.59508868 [kJ/mol]
      Disp20                       -3.54291942 [mEh]      -2.22321560 [kcal/mol]      -9.30193495 [kJ/mol]
      Exch-Disp20 sc.               0.65010332 [mEh]       0.40794601 [kcal/mol]       1.70684627 [kJ/mol]
      Disp20 (SS)                  -1.77145971 [mEh]      -1.11160780 [kcal/mol]      -4.65096747 [kJ/mol]
      Disp20 (OS)                  -1.77145971 [mEh]      -1.11160780 [kcal/mol]      -4.65096747 [kJ/mol]
      Exch-Disp20 (SS) sc.          0.40276688 [mEh]       0.25274005 [kcal/mol]       1.05746445 [kJ/mol]
      Exch-Disp20 (OS) sc.          0.24733644 [mEh]       0.15520596 [kcal/mol]       0.64938182 [kJ/mol]

  Total HF                         -5.68662563 [mEh]      -3.56841161 [kcal/mol]     -14.93023560 [kJ/mol]
  Total SAPT0 sc.                  -8.57944173 [mEh]      -5.38368119 [kcal/mol]     -22.52532427 [kJ/mol]
  --------------------------------------------------------------------------------------------------------

*** tstop() called on psinet at Mon May 15 15:39:36 2017
Module time:
	user time   =       0.46 seconds =       0.01 minutes
	system time =       0.10 seconds =       0.00 minutes
	total time  =          1 seconds =       0.02 minutes
Total time:
	user time   =       3.18 seconds =       0.05 minutes
	system time =       0.18 seconds =       0.00 minutes
	total time  =          4 seconds =       0.07 minutes
	SAPT0 ELST ENERGY.................................................PASSED
	SAPT ELST ENERGY..................................................PASSED
	SAPT0 EXCH ENERGY.................................................PASSED
	SAPT EXCH ENERGY..................................................PASSED
	SAPT0 IND ENERGY..................................................PASSED
	SAPT IND ENERGY...................................................PASSED
	SAPT0 DISP ENERGY.................................................PASSED
	SAPT DISP ENERGY..................................................PASSED
	SAPT0 TOTAL ENERGY................................................PASSED
	SAPT TOTAL ENERGY.................................................PASSED
	SCS-SAPT0 ELST ENERGY.............................................PASSED
	SCS-SAPT0 EXCH ENERGY.............................................PASSED
	SCS-SAPT0 IND ENERGY..............................................PASSED
	SCS-SAPT0 DISP ENERGY.............................................PASSED
	SCS-SAPT0 TOTAL ENERGY............................................PASSED
	SSAPT0 ELST ENERGY................................................PASSED
	SSAPT0 EXCH ENERGY................................................PASSED
	SSAPT0 IND ENERGY.................................................PASSED
	SSAPT0 DISP ENERGY................................................PASSED
	SSAPT0 TOTAL ENERGY...............................................PASSED
	CURRENT ENERGY....................................................PASSED
  SAPT does not make use of molecular symmetry, further calculations in C1 point group.

  //>>>>>>>>>>>>>>>>>>>>>>>>>>>>>>>>>>>//
  //              Dimer HF             //
  //<<<<<<<<<<<<<<<<<<<<<<<<<<<<<<<<<<<//


*** tstart() called on psinet
*** at Mon May 15 15:39:36 2017

   => Loading Basis Set <=

    Name: AUG-CC-PVDZ
    Role: ORBITAL
    Keyword: BASIS
    atoms 1, 4     entry O          line   243 file /home/psilocaluser/gits/hrw-direct/objdir4/stage/usr/local/psi4/share/psi4/basis/aug-cc-pvdz.gbs 
    atoms 2-3, 5-6 entry H          line    35 file /home/psilocaluser/gits/hrw-direct/objdir4/stage/usr/local/psi4/share/psi4/basis/aug-cc-pvdz.gbs 


         ---------------------------------------------------------
                                   SCF
            by Justin Turney, Rob Parrish, and Andy Simmonett
                              RHF Reference
                        1 Threads,    600 MiB Core
         ---------------------------------------------------------

  ==> Geometry <==

    Molecular point group: c1
    Full point group: Cs

    Geometry (in Angstrom), charge = 0, multiplicity = 1:

       Center              X                  Y                   Z               Mass       
    ------------   -----------------  -----------------  -----------------  -----------------
           O         -1.485163346097    -0.114724564047     0.000000000000    15.994914619560
           H         -1.868415346097     0.762298435953     0.000000000000     1.007825032070
           H         -0.533833346097     0.040507435953     0.000000000000     1.007825032070
           O          1.416468653903     0.111264435953     0.000000000000    15.994914619560
           H          1.746241653903    -0.373945564047    -0.758561000000     1.007825032070
           H          1.746241653903    -0.373945564047     0.758561000000     1.007825032070

  Running in c1 symmetry.

  Rotational constants: A =      7.15151  B =      0.21457  C =      0.21447 [cm^-1]
  Rotational constants: A = 214396.91676  B =   6432.69056  C =   6429.61813 [MHz]
  Nuclear repulsion =   36.662847852755299

  Charge       = 0
  Multiplicity = 1
  Electrons    = 20
  Nalpha       = 10
  Nbeta        = 10

  ==> Algorithm <==

  SCF Algorithm Type is DF.
  DIIS enabled.
  MOM disabled.
  Fractional occupation disabled.
  Guess Type is SAD.
  Energy threshold   = 1.00e-08
  Density threshold  = 1.00e-08
  Integral threshold = 0.00e+00

  ==> Primary Basis <==

  Basis Set: AUG-CC-PVDZ
    Blend: AUG-CC-PVDZ
    Number of shells: 38
    Number of basis function: 82
    Number of Cartesian functions: 86
    Spherical Harmonics?: true
    Max angular momentum: 2

   => Loading Basis Set <=

    Name: (AUG-CC-PVDZ AUX)
    Role: JKFIT
    Keyword: DF_BASIS_SCF
    atoms 1, 4     entry O          line   269 file /home/psilocaluser/gits/hrw-direct/objdir4/stage/usr/local/psi4/share/psi4/basis/aug-cc-pvdz-jkfit.gbs 
    atoms 2-3, 5-6 entry H          line    69 file /home/psilocaluser/gits/hrw-direct/objdir4/stage/usr/local/psi4/share/psi4/basis/aug-cc-pvdz-jkfit.gbs 

  ==> Pre-Iterations <==

   -------------------------------------------------------
    Irrep   Nso     Nmo     Nalpha   Nbeta   Ndocc  Nsocc
   -------------------------------------------------------
     A         82      82       0       0       0       0
   -------------------------------------------------------
    Total      82      82      10      10      10       0
   -------------------------------------------------------

  ==> Integral Setup <==

  ==> DFJK: Density-Fitted J/K Matrices <==

    J tasked:                  Yes
    K tasked:                  Yes
    wK tasked:                  No
    OpenMP threads:              1
    Integrals threads:           1
    Memory (MB):               450
    Algorithm:                Core
    Integral Cache:           SAVE
    Schwarz Cutoff:          1E-12
    Fitting Condition:       1E-12

   => Auxiliary Basis Set <=

  Basis Set: (AUG-CC-PVDZ AUX)
    Blend: AUG-CC-PVDZ-JKFIT
    Number of shells: 104
    Number of basis function: 300
    Number of Cartesian functions: 342
    Spherical Harmonics?: true
    Max angular momentum: 3

  Minimum eigenvalue in the overlap matrix is 1.5458174156E-03.
  Using Symmetric Orthogonalization.

  SCF Guess: Superposition of Atomic Densities via on-the-fly atomic UHF.

  ==> Iterations <==

                           Total Energy        Delta E     RMS |[F,P]|

   @DF-RHF iter   0:  -152.09889080344215   -1.52099e+02   2.98949e-02 
   @DF-RHF iter   1:  -152.01768003880912    8.12108e-02   4.79638e-03 
   @DF-RHF iter   2:  -152.07170323529667   -5.40232e-02   2.48861e-03 DIIS
   @DF-RHF iter   3:  -152.08709782693427   -1.53946e-02   4.91527e-04 DIIS
   @DF-RHF iter   4:  -152.08837204198508   -1.27422e-03   1.35409e-04 DIIS
   @DF-RHF iter   5:  -152.08854568101373   -1.73639e-04   3.67840e-05 DIIS
   @DF-RHF iter   6:  -152.08855819908641   -1.25181e-05   1.51954e-05 DIIS
   @DF-RHF iter   7:  -152.08855920774320   -1.00866e-06   3.23719e-06 DIIS
   @DF-RHF iter   8:  -152.08855930555168   -9.78085e-08   6.44141e-07 DIIS
   @DF-RHF iter   9:  -152.08855930998868   -4.43700e-09   1.36298e-07 DIIS
   @DF-RHF iter  10:  -152.08855931016416   -1.75476e-10   3.02465e-08 DIIS
   @DF-RHF iter  11:  -152.08855931017274   -8.58336e-12   5.04772e-09 DIIS

  ==> Post-Iterations <==

    Orbital Energies (a.u.)
    -----------------------

    Doubly Occupied:                                                      

       1A    -20.602639     2A    -20.546335     3A     -1.383460  
       4A     -1.326570     5A     -0.743791     6A     -0.696317  
       7A     -0.615222     8A     -0.561295     9A     -0.530321  
      10A     -0.481154  

    Virtual:                                                              

      11A      0.028509    12A      0.055390    13A      0.056015  
      14A      0.090965    15A      0.156904    16A      0.185106  
      17A      0.211368    18A      0.214763    19A      0.226647  
      20A      0.236784    21A      0.261716    22A      0.284391  
      23A      0.294520    24A      0.332786    25A      0.351553  
      26A      0.364132    27A      0.382424    28A      0.441710  
      29A      0.458373    30A      0.486897    31A      0.524480  
      32A      0.534279    33A      0.553359    34A      0.608919  
      35A      0.647361    36A      0.667426    37A      0.682457  
      38A      0.787323    39A      0.800411    40A      0.919334  
      41A      0.967205    42A      1.036646    43A      1.116578  
      44A      1.145280    45A      1.147183    46A      1.178827  
      47A      1.208787    48A      1.221972    49A      1.354001  
      50A      1.380942    51A      1.437306    52A      1.472782  
      53A      1.593147    54A      1.597655    55A      1.641265  
      56A      1.964711    57A      2.003803    58A      2.017525  
      59A      2.043660    60A      2.071695    61A      2.157424  
      62A      2.274268    63A      2.337492    64A      2.461918  
      65A      2.472755    66A      2.580463    67A      2.620593  
      68A      2.700541    69A      2.771041    70A      2.791336  
      71A      3.018081    72A      3.122743    73A      3.694159  
      74A      3.698103    75A      3.709431    76A      3.741715  
      77A      3.771102    78A      3.790699    79A      4.043223  
      80A      4.159440    81A      4.287651    82A      4.410083  

    Final Occupation by Irrep:
              A 
    DOCC [    10 ]

  Energy converged.

  @DF-RHF Final Energy:  -152.08855931017274

   => Energetics <=

    Nuclear Repulsion Energy =             36.6628478527552986
    One-Electron Energy =                -282.5286053094907857
    Two-Electron Energy =                  93.7771981465627249
    DFT Exchange-Correlation Energy =       0.0000000000000000
    Empirical Dispersion Energy =           0.0000000000000000
    PCM Polarization Energy =               0.0000000000000000
    EFP Energy =                            0.0000000000000000
    Total Energy =                       -152.0885593101727409



Properties will be evaluated at   0.000000,   0.000000,   0.000000 Bohr

Properties computed using the SCF density matrix

  Nuclear Dipole Moment: (a.u.)
     X:     1.0217      Y:     0.0515      Z:     0.0000

  Electronic Dipole Moment: (a.u.)
     X:     0.0163      Y:    -0.0169      Z:    -0.0000

  Dipole Moment: (a.u.)
     X:     1.0380      Y:     0.0345      Z:    -0.0000     Total:     1.0386

  Dipole Moment: (Debye)
     X:     2.6383      Y:     0.0878      Z:    -0.0000     Total:     2.6398


*** tstop() called on psinet at Mon May 15 15:39:37 2017
Module time:
	user time   =       1.02 seconds =       0.02 minutes
	system time =       0.02 seconds =       0.00 minutes
	total time  =          1 seconds =       0.02 minutes
Total time:
	user time   =       4.22 seconds =       0.07 minutes
	system time =       0.21 seconds =       0.00 minutes
	total time  =          5 seconds =       0.08 minutes

  //>>>>>>>>>>>>>>>>>>>>>>>>>>>>>>>>>>>//
  //            Monomer A HF           //
  //<<<<<<<<<<<<<<<<<<<<<<<<<<<<<<<<<<<//


*** tstart() called on psinet
*** at Mon May 15 15:39:37 2017

   => Loading Basis Set <=

    Name: AUG-CC-PVDZ
    Role: ORBITAL
    Keyword: BASIS
    atoms 1, 4     entry O          line   243 file /home/psilocaluser/gits/hrw-direct/objdir4/stage/usr/local/psi4/share/psi4/basis/aug-cc-pvdz.gbs 
    atoms 2-3, 5-6 entry H          line    35 file /home/psilocaluser/gits/hrw-direct/objdir4/stage/usr/local/psi4/share/psi4/basis/aug-cc-pvdz.gbs 


         ---------------------------------------------------------
                                   SCF
            by Justin Turney, Rob Parrish, and Andy Simmonett
                              RHF Reference
                        1 Threads,    600 MiB Core
         ---------------------------------------------------------

  ==> Geometry <==

    Molecular point group: c1
    Full point group: Cs

    Geometry (in Angstrom), charge = 0, multiplicity = 1:

       Center              X                  Y                   Z               Mass       
    ------------   -----------------  -----------------  -----------------  -----------------
           O         -1.485163346097    -0.114724564047     0.000000000000    15.994914619560
           H         -1.868415346097     0.762298435953     0.000000000000     1.007825032070
           H         -0.533833346097     0.040507435953     0.000000000000     1.007825032070
           O(Gh)      1.416468653903     0.111264435953     0.000000000000    15.994914619560
           H(Gh)      1.746241653903    -0.373945564047    -0.758561000000     1.007825032070
           H(Gh)      1.746241653903    -0.373945564047     0.758561000000     1.007825032070

  Running in c1 symmetry.

  Rotational constants: A =      7.15151  B =      0.21457  C =      0.21447 [cm^-1]
  Rotational constants: A = 214396.91676  B =   6432.69056  C =   6429.61813 [MHz]
  Nuclear repulsion =    9.163830145965930

  Charge       = 0
  Multiplicity = 1
  Electrons    = 10
  Nalpha       = 5
  Nbeta        = 5

  ==> Algorithm <==

  SCF Algorithm Type is DF.
  DIIS enabled.
  MOM disabled.
  Fractional occupation disabled.
  Guess Type is SAD.
  Energy threshold   = 1.00e-08
  Density threshold  = 1.00e-08
  Integral threshold = 0.00e+00

  ==> Primary Basis <==

  Basis Set: AUG-CC-PVDZ
    Blend: AUG-CC-PVDZ
    Number of shells: 38
    Number of basis function: 82
    Number of Cartesian functions: 86
    Spherical Harmonics?: true
    Max angular momentum: 2

   => Loading Basis Set <=

    Name: (AUG-CC-PVDZ AUX)
    Role: JKFIT
    Keyword: DF_BASIS_SCF
    atoms 1, 4     entry O          line   269 file /home/psilocaluser/gits/hrw-direct/objdir4/stage/usr/local/psi4/share/psi4/basis/aug-cc-pvdz-jkfit.gbs 
    atoms 2-3, 5-6 entry H          line    69 file /home/psilocaluser/gits/hrw-direct/objdir4/stage/usr/local/psi4/share/psi4/basis/aug-cc-pvdz-jkfit.gbs 

  ==> Pre-Iterations <==

   -------------------------------------------------------
    Irrep   Nso     Nmo     Nalpha   Nbeta   Ndocc  Nsocc
   -------------------------------------------------------
     A         82      82       0       0       0       0
   -------------------------------------------------------
    Total      82      82       5       5       5       0
   -------------------------------------------------------

  ==> Integral Setup <==

  ==> DFJK: Density-Fitted J/K Matrices <==

    J tasked:                  Yes
    K tasked:                  Yes
    wK tasked:                  No
    OpenMP threads:              1
    Integrals threads:           1
    Memory (MB):               450
    Algorithm:                Core
    Integral Cache:           LOAD
    Schwarz Cutoff:          1E-12
    Fitting Condition:       1E-12

   => Auxiliary Basis Set <=

  Basis Set: (AUG-CC-PVDZ AUX)
    Blend: AUG-CC-PVDZ-JKFIT
    Number of shells: 104
    Number of basis function: 300
    Number of Cartesian functions: 342
    Spherical Harmonics?: true
    Max angular momentum: 3

  Minimum eigenvalue in the overlap matrix is 1.5458174156E-03.
  Using Symmetric Orthogonalization.

  SCF Guess: Superposition of Atomic Densities via on-the-fly atomic UHF.

  ==> Iterations <==

                           Total Energy        Delta E     RMS |[F,P]|

   @DF-RHF iter   0:   -76.05483328352237   -7.60548e+01   2.09197e-02 
   @DF-RHF iter   1:   -75.99759253331895    5.72408e-02   3.72250e-03 
   @DF-RHF iter   2:   -76.02991945562752   -3.23269e-02   2.04091e-03 DIIS
   @DF-RHF iter   3:   -76.04030508673819   -1.03856e-02   3.88010e-04 DIIS
   @DF-RHF iter   4:   -76.04112693502545   -8.21848e-04   1.10478e-04 DIIS
   @DF-RHF iter   5:   -76.04124228463625   -1.15350e-04   2.51399e-05 DIIS
   @DF-RHF iter   6:   -76.04124947107597   -7.18644e-06   4.64165e-06 DIIS
   @DF-RHF iter   7:   -76.04124969998374   -2.28908e-07   9.13939e-07 DIIS
   @DF-RHF iter   8:   -76.04124970934741   -9.36367e-09   1.67857e-07 DIIS
   @DF-RHF iter   9:   -76.04124970961117   -2.63753e-10   3.47638e-08 DIIS
   @DF-RHF iter  10:   -76.04124970962026   -9.09495e-12   5.75089e-09 DIIS

  ==> Post-Iterations <==

    Orbital Energies (a.u.)
    -----------------------

    Doubly Occupied:                                                      

       1A    -20.577858     2A     -1.355087     3A     -0.717142  
       4A     -0.585307     5A     -0.509181  

    Virtual:                                                              

       6A      0.026528     7A      0.050726     8A      0.061604  
       9A      0.086392    10A      0.129583    11A      0.147351  
      12A      0.188792    13A      0.191379    14A      0.216554  
      15A      0.226859    16A      0.233498    17A      0.278536  
      18A      0.337937    19A      0.361009    20A      0.365602  
      21A      0.392758    22A      0.400796    23A      0.416682  
      24A      0.440286    25A      0.445310    26A      0.490038  
      27A      0.520808    28A      0.531066    29A      0.565751  
      30A      0.626264    31A      0.636729    32A      0.659655  
      33A      0.752311    34A      0.841446    35A      0.938922  
      36A      0.978936    37A      1.107481    38A      1.108419  
      39A      1.145292    40A      1.153650    41A      1.190741  
      42A      1.199682    43A      1.269429    44A      1.290489  
      45A      1.334965    46A      1.345243    47A      1.387876  
      48A      1.460914    49A      1.499151    50A      1.590279  
      51A      1.759609    52A      2.017361    53A      2.019199  
      54A      2.063881    55A      2.111443    56A      2.257187  
      57A      2.381281    58A      2.509103    59A      2.520118  
      60A      2.535996    61A      2.575036    62A      2.697583  
      63A      2.748538    64A      2.823618    65A      2.987136  
      66A      3.444151    67A      3.680922    68A      3.715098  
      69A      3.743887    70A      3.902466    71A      4.082346  
      72A      4.138139    73A      4.358595    74A      4.954505  
      75A      4.958024    76A      5.036448    77A      5.104272  
      78A      5.366871    79A      5.935280    80A      6.625257  
      81A      7.039183    82A     33.536834  

    Final Occupation by Irrep:
              A 
    DOCC [     5 ]

  Energy converged.

  @DF-RHF Final Energy:   -76.04124970962026

   => Energetics <=

    Nuclear Repulsion Energy =              9.1638301459659299
    One-Electron Energy =                -122.9210104733447508
    Two-Electron Energy =                  37.7159306177585520
    DFT Exchange-Correlation Energy =       0.0000000000000000
    Empirical Dispersion Energy =           0.0000000000000000
    PCM Polarization Energy =               0.0000000000000000
    EFP Energy =                            0.0000000000000000
    Total Energy =                        -76.0412497096202742



Properties will be evaluated at   0.000000,   0.000000,   0.000000 Bohr

Properties computed using the SCF density matrix

  Nuclear Dipole Moment: (a.u.)
     X:   -26.9920      Y:    -0.2173      Z:     0.0000

  Electronic Dipole Moment: (a.u.)
     X:    27.3712      Y:     0.9088      Z:     0.0000

  Dipole Moment: (a.u.)
     X:     0.3792      Y:     0.6915      Z:     0.0000     Total:     0.7887

  Dipole Moment: (Debye)
     X:     0.9638      Y:     1.7576      Z:     0.0000     Total:     2.0046


*** tstop() called on psinet at Mon May 15 15:39:38 2017
Module time:
	user time   =       0.78 seconds =       0.01 minutes
	system time =       0.02 seconds =       0.00 minutes
	total time  =          1 seconds =       0.02 minutes
Total time:
	user time   =       5.00 seconds =       0.08 minutes
	system time =       0.23 seconds =       0.00 minutes
	total time  =          6 seconds =       0.10 minutes

  //>>>>>>>>>>>>>>>>>>>>>>>>>>>>>>>>>>>//
  //            Monomer B HF           //
  //<<<<<<<<<<<<<<<<<<<<<<<<<<<<<<<<<<<//


*** tstart() called on psinet
*** at Mon May 15 15:39:38 2017

   => Loading Basis Set <=

    Name: AUG-CC-PVDZ
    Role: ORBITAL
    Keyword: BASIS
    atoms 1, 4     entry O          line   243 file /home/psilocaluser/gits/hrw-direct/objdir4/stage/usr/local/psi4/share/psi4/basis/aug-cc-pvdz.gbs 
    atoms 2-3, 5-6 entry H          line    35 file /home/psilocaluser/gits/hrw-direct/objdir4/stage/usr/local/psi4/share/psi4/basis/aug-cc-pvdz.gbs 


         ---------------------------------------------------------
                                   SCF
            by Justin Turney, Rob Parrish, and Andy Simmonett
                              RHF Reference
                        1 Threads,    600 MiB Core
         ---------------------------------------------------------

  ==> Geometry <==

    Molecular point group: c1
    Full point group: Cs

    Geometry (in Angstrom), charge = 0, multiplicity = 1:

       Center              X                  Y                   Z               Mass       
    ------------   -----------------  -----------------  -----------------  -----------------
           O(Gh)     -1.485163346097    -0.114724564047     0.000000000000    15.994914619560
           H(Gh)     -1.868415346097     0.762298435953     0.000000000000     1.007825032070
           H(Gh)     -0.533833346097     0.040507435953     0.000000000000     1.007825032070
           O          1.416468653903     0.111264435953     0.000000000000    15.994914619560
           H          1.746241653903    -0.373945564047    -0.758561000000     1.007825032070
           H          1.746241653903    -0.373945564047     0.758561000000     1.007825032070

  Running in c1 symmetry.

  Rotational constants: A =      7.15151  B =      0.21457  C =      0.21447 [cm^-1]
  Rotational constants: A = 214396.91676  B =   6432.69056  C =   6429.61813 [MHz]
  Nuclear repulsion =    9.178038904903588

  Charge       = 0
  Multiplicity = 1
  Electrons    = 10
  Nalpha       = 5
  Nbeta        = 5

  ==> Algorithm <==

  SCF Algorithm Type is DF.
  DIIS enabled.
  MOM disabled.
  Fractional occupation disabled.
  Guess Type is SAD.
  Energy threshold   = 1.00e-08
  Density threshold  = 1.00e-08
  Integral threshold = 0.00e+00

  ==> Primary Basis <==

  Basis Set: AUG-CC-PVDZ
    Blend: AUG-CC-PVDZ
    Number of shells: 38
    Number of basis function: 82
    Number of Cartesian functions: 86
    Spherical Harmonics?: true
    Max angular momentum: 2

   => Loading Basis Set <=

    Name: (AUG-CC-PVDZ AUX)
    Role: JKFIT
    Keyword: DF_BASIS_SCF
    atoms 1, 4     entry O          line   269 file /home/psilocaluser/gits/hrw-direct/objdir4/stage/usr/local/psi4/share/psi4/basis/aug-cc-pvdz-jkfit.gbs 
    atoms 2-3, 5-6 entry H          line    69 file /home/psilocaluser/gits/hrw-direct/objdir4/stage/usr/local/psi4/share/psi4/basis/aug-cc-pvdz-jkfit.gbs 

  ==> Pre-Iterations <==

   -------------------------------------------------------
    Irrep   Nso     Nmo     Nalpha   Nbeta   Ndocc  Nsocc
   -------------------------------------------------------
     A         82      82       0       0       0       0
   -------------------------------------------------------
    Total      82      82       5       5       5       0
   -------------------------------------------------------

  ==> Integral Setup <==

  ==> DFJK: Density-Fitted J/K Matrices <==

    J tasked:                  Yes
    K tasked:                  Yes
    wK tasked:                  No
    OpenMP threads:              1
    Integrals threads:           1
    Memory (MB):               450
    Algorithm:                Core
    Integral Cache:           LOAD
    Schwarz Cutoff:          1E-12
[...]
    atoms 1, 4     entry O          line   269 file /home/psilocaluser/gits/hrw-direct/objdir4/stage/usr/local/psi4/share/psi4/basis/aug-cc-pvdz-jkfit.gbs 
    atoms 2-3, 5-6 entry H          line    69 file /home/psilocaluser/gits/hrw-direct/objdir4/stage/usr/local/psi4/share/psi4/basis/aug-cc-pvdz-jkfit.gbs 

  ==> Pre-Iterations <==

   -------------------------------------------------------
    Irrep   Nso     Nmo     Nalpha   Nbeta   Ndocc  Nsocc
   -------------------------------------------------------
     A         82      82       0       0       0       0
   -------------------------------------------------------
    Total      82      82       5       5       5       0
   -------------------------------------------------------

  ==> Integral Setup <==

  ==> DFJK: Density-Fitted J/K Matrices <==

    J tasked:                  Yes
    K tasked:                  Yes
    wK tasked:                  No
    OpenMP threads:              1
    Integrals threads:           1
    Memory (MB):               450
    Algorithm:                Core
    Integral Cache:           LOAD
    Schwarz Cutoff:          1E-12
    Fitting Condition:       1E-12

   => Auxiliary Basis Set <=

  Basis Set: (AUG-CC-PVDZ AUX)
    Blend: AUG-CC-PVDZ-JKFIT
    Number of shells: 104
    Number of basis function: 300
    Number of Cartesian functions: 342
    Spherical Harmonics?: true
    Max angular momentum: 3

  Minimum eigenvalue in the overlap matrix is 1.5458174156E-03.
  Using Symmetric Orthogonalization.

  SCF Guess: Superposition of Atomic Densities via on-the-fly atomic UHF.

  ==> Iterations <==

                           Total Energy        Delta E     RMS |[F,P]|

   @DF-RHF iter   0:   -75.98235456751542   -7.59824e+01   2.08127e-02 
   @DF-RHF iter   1:   -76.00815660469674   -2.58020e-02   3.29641e-03 
   @DF-RHF iter   2:   -76.03279912320399   -2.46425e-02   1.79854e-03 DIIS
   @DF-RHF iter   3:   -76.04085985038090   -8.06073e-03   3.28499e-04 DIIS
   @DF-RHF iter   4:   -76.04150551879042   -6.45668e-04   1.02742e-04 DIIS
   @DF-RHF iter   5:   -76.04161532583554   -1.09807e-04   2.50235e-05 DIIS
   @DF-RHF iter   6:   -76.04162283722532   -7.51139e-06   3.69552e-06 DIIS
   @DF-RHF iter   7:   -76.04162297102040   -1.33795e-07   6.00928e-07 DIIS
   @DF-RHF iter   8:   -76.04162297473754   -3.71713e-09   1.33742e-07 DIIS
   @DF-RHF iter   9:   -76.04162297491263   -1.75092e-10   3.07974e-08 DIIS
   @DF-RHF iter  10:   -76.04162297492117   -8.54072e-12   5.21903e-09 DIIS

  ==> Post-Iterations <==

    Orbital Energies (a.u.)
    -----------------------

    Doubly Occupied:                                                      

       1A    -20.577709     2A     -1.355581     3A     -0.718219  
       4A     -0.585007     5A     -0.509212  

    Virtual:                                                              

       6A      0.032632     7A      0.054318     8A      0.057834  
       9A      0.083164    10A      0.154115    11A      0.171149  
      12A      0.176338    13A      0.189705    14A      0.218522  
      15A      0.232962    16A      0.240222    17A      0.280124  
      18A      0.298204    19A      0.344974    20A      0.386471  
      21A      0.403055    22A      0.409576    23A      0.460879  
      24A      0.462722    25A      0.483575    26A      0.531414  
      27A      0.548614    28A      0.557343    29A      0.559268  
      30A      0.639489    31A      0.674849    32A      0.677877  
      33A      0.755276    34A      0.821005    35A      0.938460  
      36A      0.951802    37A      0.972541    38A      1.151505  
      39A      1.157906    40A      1.162603    41A      1.210530  
      42A      1.228959    43A      1.291515    44A      1.339092  
      45A      1.342961    46A      1.427749    47A      1.458943  
      48A      1.490231    49A      1.515925    50A      1.605489  
      51A      1.786836    52A      2.005217    53A      2.096315  
      54A      2.164087    55A      2.208994    56A      2.366911  
      57A      2.400893    58A      2.415593    59A      2.484018  
      60A      2.551450    61A      2.639341    62A      2.682989  
      63A      2.727123    64A      2.784583    65A      3.091250  
      66A      3.492474    67A      3.725266    68A      3.727066  
      69A      3.821335    70A      3.960177    71A      4.064947  
      72A      4.088597    73A      4.314045    74A      4.913073  
      75A      4.955873    76A      5.013658    77A      5.205190  
      78A      5.492538    79A      5.702443    80A      6.695068  
      81A      7.147393    82A     33.583918  

    Final Occupation by Irrep:
              A 
    DOCC [     5 ]

  Energy converged.

  @DF-RHF Final Energy:   -76.04162297492117

   => Energetics <=

    Nuclear Repulsion Energy =              9.1780389049035875
    One-Electron Energy =                -122.9478671869202202
    Two-Electron Energy =                  37.7282053070954646
    DFT Exchange-Correlation Energy =       0.0000000000000000
    Empirical Dispersion Energy =           0.0000000000000000
    PCM Polarization Energy =               0.0000000000000000
    EFP Energy =                            0.0000000000000000
    Total Energy =                        -76.0416229749211681



Properties will be evaluated at   0.000000,   0.000000,   0.000000 Bohr

Properties computed using the SCF density matrix

  Nuclear Dipole Moment: (a.u.)
     X:    28.0137      Y:     0.2688      Z:     0.0000

  Electronic Dipole Moment: (a.u.)
     X:   -27.5751      Y:    -0.9172      Z:     0.0000

  Dipole Moment: (a.u.)
     X:     0.4386      Y:    -0.6484      Z:     0.0000     Total:     0.7828

  Dipole Moment: (Debye)
     X:     1.1148      Y:    -1.6481      Z:     0.0000     Total:     1.9897


*** tstop() called on psinet at Mon May 15 15:40:08 2017
Module time:
	user time   =       0.79 seconds =       0.01 minutes
	system time =       0.02 seconds =       0.00 minutes
	total time  =          1 seconds =       0.02 minutes
Total time:
	user time   =      31.44 seconds =       0.52 minutes
	system time =       2.94 seconds =       0.05 minutes
	total time  =         36 seconds =       0.60 minutes

*** tstart() called on psinet
*** at Mon May 15 15:40:08 2017


  //>>>>>>>>>>>>>>>>>>>>>>>>>>>>>>>>>>>//
  //               DFMP2               //
  //<<<<<<<<<<<<<<<<<<<<<<<<<<<<<<<<<<<//

   => Loading Basis Set <=

    Name: (AUG-CC-PVDZ AUX)
    Role: RIFIT
    Keyword: DF_BASIS_MP2
    atoms 1, 4     entry O          line   203 file /home/psilocaluser/gits/hrw-direct/objdir4/stage/usr/local/psi4/share/psi4/basis/aug-cc-pvdz-ri.gbs 
    atoms 2-3, 5-6 entry H          line    29 file /home/psilocaluser/gits/hrw-direct/objdir4/stage/usr/local/psi4/share/psi4/basis/aug-cc-pvdz-ri.gbs 

	 --------------------------------------------------------
	                          DF-MP2                         
	      2nd-Order Density-Fitted Moller-Plesset Theory     
	              RMP2 Wavefunction,   1 Threads             
	                                                         
	        Rob Parrish, Justin Turney, Andy Simmonett,      
	           Ed Hohenstein, and C. David Sherrill          
	 --------------------------------------------------------

   => Auxiliary Basis Set <=

  Basis Set: (AUG-CC-PVDZ AUX)
    Blend: AUG-CC-PVDZ-RI
    Number of shells: 80
    Number of basis function: 236
    Number of Cartesian functions: 272
    Spherical Harmonics?: true
    Max angular momentum: 3

	 --------------------------------------------------------
	                 NBF =    82, NAUX =   236
	 --------------------------------------------------------
	   CLASS    FOCC     OCC    AOCC    AVIR     VIR    FVIR
	   PAIRS       1       5       4      77      77       0
	 --------------------------------------------------------

	 Will attempt to load fitting metric from file 97.

	-----------------------------------------------------------
	 ==================> DF-MP2 Energies <==================== 
	-----------------------------------------------------------
	 Reference Energy          =     -76.0416229749211681 [Eh]
	 Singles Energy            =      -0.0000000000000308 [Eh]
	 Same-Spin Energy          =      -0.0560001170631612 [Eh]
	 Opposite-Spin Energy      =      -0.1640937799540556 [Eh]
	 Correlation Energy        =      -0.2200938970172477 [Eh]
	 Total Energy              =     -76.2617168719384182 [Eh]
	-----------------------------------------------------------
	 ================> DF-SCS-MP2 Energies <================== 
	-----------------------------------------------------------
	 SCS Same-Spin Scale       =       0.3333333333333333 [-]
	 SCS Opposite-Spin Scale   =       1.2000000000000000 [-]
	 SCS Same-Spin Energy      =      -0.0186667056877204 [Eh]
	 SCS Opposite-Spin Energy  =      -0.1969125359448668 [Eh]
	 SCS Correlation Energy    =      -0.2155792416326180 [Eh]
	 SCS Total Energy          =     -76.2572022165537931 [Eh]
	-----------------------------------------------------------


*** tstop() called on psinet at Mon May 15 15:40:08 2017
Module time:
	user time   =       0.20 seconds =       0.00 minutes
	system time =       0.00 seconds =       0.00 minutes
	total time  =          0 seconds =       0.00 minutes
Total time:
	user time   =      31.65 seconds =       0.53 minutes
	system time =       2.94 seconds =       0.05 minutes
	total time  =         36 seconds =       0.60 minutes
   => Loading Basis Set <=

    Name: (AUG-CC-PVDZ AUX)
    Role: RIFIT
    Keyword: DF_BASIS_SAPT
    atoms 1, 4     entry O          line   203 file /home/psilocaluser/gits/hrw-direct/objdir4/stage/usr/local/psi4/share/psi4/basis/aug-cc-pvdz-ri.gbs 
    atoms 2-3, 5-6 entry H          line    29 file /home/psilocaluser/gits/hrw-direct/objdir4/stage/usr/local/psi4/share/psi4/basis/aug-cc-pvdz-ri.gbs 


  //>>>>>>>>>>>>>>>>>>>>>>>>>>>>>>>>>>>//
  //           SAPT2+(3)DMP2           //
  //<<<<<<<<<<<<<<<<<<<<<<<<<<<<<<<<<<<//


*** tstart() called on psinet
*** at Mon May 15 15:40:08 2017

      SAPT2+(3)  
    Ed Hohenstein
     6 June 2009

      Orbital Information
  --------------------------
    NSO        =        82
    NMO        =        82
    NRI        =       236
    NOCC A     =         5
    NOCC B     =         5
    FOCC A     =         1
    FOCC B     =         1
    NVIR A     =        77
    NVIR B     =        77

    Estimated memory usage: 14.8 MB

    Natural Orbital Cutoff:   1.000E-06
    Disp(T3) Truncation:            Yes
    CCD (vv|vv) Truncation:         Yes
    MBPT T2 Truncation:             Yes

    Monomer A: 41 virtual orbitals dropped
    Monomer B: 38 virtual orbitals dropped

    Elst10,r            =    -0.013375429365 [Eh]
    Exch10 (S^2)        =     0.011138027617 [Eh]
    Exch10              =     0.011218223502 [Eh]
    Ind20,r (A<-B)      =    -0.001439572100 [Eh]
    Ind20,r (B<-A)      =    -0.003135736123 [Eh]
    Ind20,r             =    -0.004575308224 [Eh]
    Exch-Ind20,r (A<-B) =     0.000948667500 [Eh]
    Exch-Ind20,r (B<-A) =     0.001529617648 [Eh]
    Exch-Ind20,r        =     0.002478285148 [Eh]
    Disp20              =    -0.003542919423 [Eh]
    Disp20 (NO)         =    -0.003106924351 [Eh]
    Exch-Disp20         =     0.000645455914 [Eh]
    Elst12,r            =     0.000044903392 [Eh]
    Exch11              =     0.000045589076 [Eh]
    Exch12              =     0.002153870009 [Eh]
    Ind22               =    -0.000837186437 [Eh]
    Disp21              =     0.000112161712 [Eh]
    Disp22 (SDQ)        =    -0.000178921625 [Eh]

    (i =   1 of   4)          0 seconds
    (i =   2 of   4)          0 seconds
    (i =   3 of   4)          0 seconds
    (i =   4 of   4)          1 seconds

    Disp220 (T)         =    -0.000245133439 [Eh]

    (i =   1 of   4)          0 seconds
    (i =   2 of   4)          0 seconds
    (i =   3 of   4)          0 seconds
    (i =   4 of   4)          0 seconds

    Disp202 (T)         =    -0.000231791931 [Eh]

    Disp22 (T)          =    -0.000476925370 [Eh]

    Est. Disp220 (T)    =    -0.000279533044 [Eh]
    Est. Disp202 (T)    =    -0.000264319321 [Eh]

    Est. Disp22 (T)     =    -0.000543852365 [Eh]
    Elst13,r            =     0.000265435139 [Eh]
    Disp30              =     0.000059599795 [Eh]

    SAPT Results 
  --------------------------------------------------------------------------------------------------------
    Electrostatics                -13.06509083 [mEh]      -8.19846862 [kcal/mol]     -34.30239598 [kJ/mol]
      Elst10,r                    -13.37542936 [mEh]      -8.39320899 [kcal/mol]     -35.11718980 [kJ/mol]
      Elst12,r                      0.04490339 [mEh]       0.02817730 [kcal/mol]       0.11789385 [kJ/mol]
      Elst13,r                      0.26543514 [mEh]       0.16656307 [kcal/mol]       0.69689996 [kJ/mol]

    Exchange                       13.41768259 [mEh]       8.41972329 [kcal/mol]      35.22812563 [kJ/mol]
      Exch10                       11.21822350 [mEh]       7.03954182 [kcal/mol]      29.45344580 [kJ/mol]
      Exch10(S^2)                  11.13802762 [mEh]       6.98921814 [kcal/mol]      29.24289151 [kJ/mol]
      Exch11(S^2)                   0.04558908 [mEh]       0.02860758 [kcal/mol]       0.11969412 [kJ/mol]
      Exch12(S^2)                   2.15387001 [mEh]       1.35157389 [kcal/mol]       5.65498571 [kJ/mol]

    Induction                      -4.14660855 [mEh]      -2.60203626 [kcal/mol]     -10.88692074 [kJ/mol]
      Ind20,r                      -4.57530822 [mEh]      -2.87104938 [kcal/mol]     -12.01247174 [kJ/mol]
      Ind22                        -0.83718644 [mEh]      -0.52534244 [kcal/mol]      -2.19803299 [kJ/mol]
      Exch-Ind20,r                  2.47828515 [mEh]       1.55514747 [kcal/mol]       6.50673766 [kJ/mol]
      Exch-Ind22                    0.45347474 [mEh]       0.28455971 [kcal/mol]       1.19059793 [kJ/mol]
      delta HF,r (2)               -1.43239669 [mEh]      -0.89884253 [kcal/mol]      -3.76075752 [kJ/mol]
      delta MP2,r (2)              -0.23347708 [mEh]      -0.14650909 [kcal/mol]      -0.61299408 [kJ/mol]

    Dispersion                     -3.44847599 [mEh]      -2.16395145 [kcal/mol]      -9.05397372 [kJ/mol]
      Disp20                       -3.54291942 [mEh]      -2.22321560 [kcal/mol]      -9.30193495 [kJ/mol]
      Disp30                        0.05959980 [mEh]       0.03739944 [kcal/mol]       0.15647926 [kJ/mol]
      Disp21                        0.11216171 [mEh]       0.07038254 [kcal/mol]       0.29448057 [kJ/mol]
      Disp22 (SDQ)                 -0.17892162 [mEh]      -0.11227502 [kcal/mol]      -0.46975873 [kJ/mol]
      Disp22 (T)                   -0.47692537 [mEh]      -0.29927520 [kcal/mol]      -1.25216756 [kJ/mol]
      Est. Disp22 (T)              -0.54385237 [mEh]      -0.34127253 [kcal/mol]      -1.42788438 [kJ/mol]
      Exch-Disp20                   0.64545591 [mEh]       0.40502972 [kcal/mol]       1.69464450 [kJ/mol]

  Total HF                         -5.68662563 [mEh]      -3.56841161 [kcal/mol]     -14.93023560 [kJ/mol]
  Total SAPT0                      -8.58408914 [mEh]      -5.38659748 [kcal/mol]     -22.53752604 [kJ/mol]
  Total SAPT2                      -6.72343836 [mEh]      -4.21902144 [kcal/mol]     -17.65238741 [kJ/mol]
  Total SAPT2+                     -7.33405064 [mEh]      -4.60218645 [kcal/mol]     -19.25554995 [kJ/mol]
  Total SAPT2+(3)                  -7.00901570 [mEh]      -4.39822394 [kcal/mol]     -18.40217073 [kJ/mol]
  Total SAPT2+dMP2                 -7.56752772 [mEh]      -4.74869554 [kcal/mol]     -19.86854403 [kJ/mol]
  Total SAPT2+(3)dMP2              -7.24249278 [mEh]      -4.54473303 [kcal/mol]     -19.01516481 [kJ/mol]

  Special recipe for scaled SAPT0 (see Manual):
    Electrostatics sSAPT0         -13.37542936 [mEh]      -8.39320899 [kcal/mol]     -35.11718980 [kJ/mol]
    Exchange sSAPT0                11.21822350 [mEh]       7.03954182 [kcal/mol]      29.45344580 [kJ/mol]
    Induction sSAPT0               -3.47550105 [mEh]      -2.18090993 [kcal/mol]      -9.12492800 [kJ/mol]
    Dispersion sSAPT0              -2.88342067 [mEh]      -1.80937386 [kcal/mol]      -7.57042097 [kJ/mol]
  Total sSAPT0                     -8.51612758 [mEh]      -5.34395096 [kcal/mol]     -22.35909297 [kJ/mol]
  --------------------------------------------------------------------------------------------------------

*** tstop() called on psinet at Mon May 15 15:40:10 2017
Module time:
	user time   =       1.83 seconds =       0.03 minutes
	system time =       0.28 seconds =       0.00 minutes
	total time  =          2 seconds =       0.03 minutes
Total time:
	user time   =      33.54 seconds =       0.56 minutes
	system time =       3.22 seconds =       0.05 minutes
	total time  =         38 seconds =       0.63 minutes
	SAPT2+(3)DMP2 ELST ENERGY.........................................PASSED
	SAPT ELST ENERGY..................................................PASSED
	SAPT2+(3)DMP2 EXCH ENERGY.........................................PASSED
	SAPT EXCH ENERGY..................................................PASSED
	SAPT2+(3)DMP2 IND ENERGY..........................................PASSED
	SAPT IND ENERGY...................................................PASSED
	SAPT2+(3)DMP2 DISP ENERGY.........................................PASSED
	SAPT DISP ENERGY..................................................PASSED
	SAPT2+(3)DMP2 TOTAL ENERGY........................................PASSED
	SAPT TOTAL ENERGY.................................................PASSED
	SAPT0 ELST ENERGY.................................................PASSED
	SAPT0 EXCH ENERGY.................................................PASSED
	SAPT0 IND ENERGY..................................................PASSED
	SAPT0 DISP ENERGY.................................................PASSED
	SAPT0 TOTAL ENERGY................................................PASSED
	SSAPT0 ELST ENERGY................................................PASSED
	SSAPT0 EXCH ENERGY................................................PASSED
	SSAPT0 IND ENERGY.................................................PASSED
	SSAPT0 DISP ENERGY................................................PASSED
	SSAPT0 TOTAL ENERGY...............................................PASSED
	SAPT2 ELST ENERGY.................................................PASSED
	SAPT2 EXCH ENERGY.................................................PASSED
	SAPT2 IND ENERGY..................................................PASSED
	SAPT2 DISP ENERGY.................................................PASSED
	SAPT2 TOTAL ENERGY................................................PASSED
	SAPT2+ ELST ENERGY................................................PASSED
	SAPT2+ EXCH ENERGY................................................PASSED
	SAPT2+ IND ENERGY.................................................PASSED
	SAPT2+ DISP ENERGY................................................PASSED
	SAPT2+ TOTAL ENERGY...............................................PASSED
	SAPT2+DMP2 ELST ENERGY............................................PASSED
	SAPT2+DMP2 EXCH ENERGY............................................PASSED
	SAPT2+DMP2 IND ENERGY.............................................PASSED
	SAPT2+DMP2 DISP ENERGY............................................PASSED
	SAPT2+DMP2 TOTAL ENERGY...........................................PASSED
	SAPT2+(3) ELST ENERGY.............................................PASSED
	SAPT2+(3) EXCH ENERGY.............................................PASSED
	SAPT2+(3) IND ENERGY..............................................PASSED
	SAPT2+(3) DISP ENERGY.............................................PASSED
	SAPT2+(3) TOTAL ENERGY............................................PASSED
	CURRENT ENERGY....................................................PASSED

*** Psi4 exiting successfully. Buy a developer a beer!
