    -----------------------------------------------------------------------
          Psi4: An Open-Source Ab Initio Electronic Structure Package
                              Psi4 0.1.925 Driver

                          Git: Rev {master} 43766e4 dirty

    J. M. Turney, A. C. Simmonett, R. M. Parrish, E. G. Hohenstein,
    F. A. Evangelista, J. T. Fermann, B. J. Mintz, L. A. Burns, J. J. Wilke,
    M. L. Abrams, N. J. Russ, M. L. Leininger, C. L. Janssen, E. T. Seidl,
    W. D. Allen, H. F. Schaefer, R. A. King, E. F. Valeev, C. D. Sherrill,
    and T. D. Crawford, WIREs Comput. Mol. Sci. 2, 556-565 (2012)
    (doi: 10.1002/wcms.93)

                         Additional Contributions by
    A. E. DePrince, M. Saitow, U. Bozkaya, A. Yu. Sokolov
    -----------------------------------------------------------------------


    Psi4 started on: Fri Jan  8 01:36:19 2016

    Process ID:  55727
    PSI4DATADIR: ../../lib
    Memory level set to 256.000 MB

  ==> Input File <==

--------------------------------------------------------------------------
#! checks that all SAPT physical components (elst, exch, indc, disp) and
#! total IE are being computed correctly for SAPT2+3(CCD)dMP2/aug-cc-pvdz and
#! all lesser methods thereof.

h2kc = psi_hartree2kcalmol
digits = 3

set print 3  # shows psivars being computed

molecule s222 {
0 1
O  -1.551007  -0.114520   0.000000
H  -1.934259   0.762503   0.000000
H  -0.599677   0.040712   0.000000
--
0 1
O   1.350625   0.111469   0.000000
H   1.680398  -0.373741  -0.758561
H   1.680398  -0.373741   0.758561
units angstrom
}

set basis jun-cc-pvdz

energy('sapt0')
print_variables()

# SCS-SAPT0
# scs-sapt0 has a definition and we check it here but that shouldn't be
#   taken for evidence that the method is any good whatsoever or that we
#   endorse it.
code = 'SCS-SAPT0'  # SAPTSCS-SA-jadz
compare_values(-8.8322, h2kc * get_variable(code + ' ELST ENERGY'), digits, code + ' elst')
compare_values( 7.1453, h2kc * get_variable(code + ' EXCH ENERGY'), digits, code + ' exch')
compare_values(-2.1246, h2kc * get_variable(code + ' INDC ENERGY'), digits, code + ' indc')
compare_values(-1.1972, h2kc * get_variable(code + ' DISP ENERGY'), digits, code + ' disp')
compare_values(-5.0086, h2kc * get_variable(code + ' TOTAL ENERGY'), digits, code)

clean()

set basis aug-cc-pvdz

set freeze_core true

set nat_orbs_t2 true
set nat_orbs_t3 true
set nat_orbs_v4 true
set occ_tolerance 1.0e-6
set do_mbpt_disp true

energy('sapt2+3(ccd)dmp2')
print_variables()

# SAPT0
code = 'SAPT0'  # SAPT0-SA-adz
compare_values(-8.3932, h2kc * get_variable(code + ' ELST ENERGY'), digits, code + ' elst')
compare_values( 7.0396, h2kc * get_variable(code + ' EXCH ENERGY'), digits, code + ' exch')
compare_values(-2.2148, h2kc * get_variable(code + ' INDC ENERGY'), digits, code + ' indc')
compare_values(-1.8153, h2kc * get_variable(code + ' DISP ENERGY'), digits, code + ' disp')
compare_values(-5.3837, h2kc * get_variable(code + ' TOTAL ENERGY'), digits, code)

# sSAPT0
code = 'SSAPT0'  # SAPT0S-SA-adz
compare_values(-8.3932, h2kc * get_variable(code + ' ELST ENERGY'), digits, code + ' elst')
compare_values( 7.0396, h2kc * get_variable(code + ' EXCH ENERGY'), digits, code + ' exch')
compare_values(-2.1809, h2kc * get_variable(code + ' INDC ENERGY'), digits, code + ' indc')
compare_values(-1.8094, h2kc * get_variable(code + ' DISP ENERGY'), digits, code + ' disp')
compare_values(-5.3440, h2kc * get_variable(code + ' TOTAL ENERGY'), digits, code)

# SCS-SAPT0
code = 'SCS-SAPT0'  # SAPTSCS-SA-adz
#compare_values(-8.3932, h2kc * get_variable(code + ' ELST ENERGY'), digits, code + ' elst')
#compare_values( 7.0396, h2kc * get_variable(code + ' EXCH ENERGY'), digits, code + ' exch')
#compare_values(-2.2148, h2kc * get_variable(code + ' INDC ENERGY'), digits, code + ' indc')
#compare_values(-1.7171, h2kc * get_variable(code + ' DISP ENERGY'), digits, code + ' disp')
#compare_values(-5.2855, h2kc * get_variable(code + ' TOTAL ENERGY'), digits, code)

# SAPT2
code = 'SAPT2'  # SAPT2-SA-adz
compare_values(-8.3650, h2kc * get_variable(code + ' ELST ENERGY'), digits, code + ' elst')
compare_values( 8.4297, h2kc * get_variable(code + ' EXCH ENERGY'), digits, code + ' exch')
compare_values(-2.4535, h2kc * get_variable(code + ' INDC ENERGY'), digits, code + ' indc')
compare_values(-1.8153, h2kc * get_variable(code + ' DISP ENERGY'), digits, code + ' disp')
compare_values(-4.2041, h2kc * get_variable(code + ' TOTAL ENERGY'), digits, code)

# SAPT2+

code = 'SAPT2+'  # SAPT2P-SA-adz
compare_values(-8.3650, h2kc * get_variable(code + ' ELST ENERGY'), digits, code + ' elst')
compare_values( 8.4297, h2kc * get_variable(code + ' EXCH ENERGY'), digits, code + ' exch')
compare_values(-2.4535, h2kc * get_variable(code + ' INDC ENERGY'), digits, code + ' indc')
compare_values(-2.1984, h2kc * get_variable(code + ' DISP ENERGY'), digits, code + ' disp')
compare_values(-4.5873, h2kc * get_variable(code + ' TOTAL ENERGY'), digits, code)

code = 'SAPT2+(CCD)'  # SAPT2PC-SA-adz
compare_values(-8.3650, h2kc * get_variable(code + ' ELST ENERGY'), digits, code + ' elst')
compare_values( 8.4297, h2kc * get_variable(code + ' EXCH ENERGY'), digits, code + ' exch')
compare_values(-2.4535, h2kc * get_variable(code + ' INDC ENERGY'), digits, code + ' indc')
compare_values(-2.1758, h2kc * get_variable(code + ' DISP ENERGY'), digits, code + ' disp')
compare_values(-4.5646, h2kc * get_variable(code + ' TOTAL ENERGY'), digits, code)

code = 'SAPT2+DMP2'  # SAPT2PM-SA-adz
compare_values(-8.3650, h2kc * get_variable(code + ' ELST ENERGY'), digits, code + ' elst')
compare_values( 8.4297, h2kc * get_variable(code + ' EXCH ENERGY'), digits, code + ' exch')
compare_values(-2.6152, h2kc * get_variable(code + ' INDC ENERGY'), digits, code + ' indc')
compare_values(-2.1984, h2kc * get_variable(code + ' DISP ENERGY'), digits, code + ' disp')
compare_values(-4.7490, h2kc * get_variable(code + ' TOTAL ENERGY'), digits, code)

code = 'SAPT2+(CCD)DMP2'  # SAPT2PCM-SA-adz
compare_values(-8.3650, h2kc * get_variable(code + ' ELST ENERGY'), digits, code + ' elst')
compare_values( 8.4297, h2kc * get_variable(code + ' EXCH ENERGY'), digits, code + ' exch')
compare_values(-2.6152, h2kc * get_variable(code + ' INDC ENERGY'), digits, code + ' indc')
compare_values(-2.1758, h2kc * get_variable(code + ' DISP ENERGY'), digits, code + ' disp')
compare_values(-4.7264, h2kc * get_variable(code + ' TOTAL ENERGY'), digits, code)

# SAPT2+(3)

code = 'SAPT2+(3)'  # SAPT3-SA-adz
compare_values(-8.1985, h2kc * get_variable(code + ' ELST ENERGY'), digits, code + ' elst')
compare_values( 8.4297, h2kc * get_variable(code + ' EXCH ENERGY'), digits, code + ' exch')
compare_values(-2.4535, h2kc * get_variable(code + ' INDC ENERGY'), digits, code + ' indc')
compare_values(-2.1610, h2kc * get_variable(code + ' DISP ENERGY'), digits, code + ' disp')
compare_values(-4.3833, h2kc * get_variable(code + ' TOTAL ENERGY'), digits, code)

code = 'SAPT2+(3)(CCD)'  # SAPT3C-SA-adz
compare_values(-8.1985, h2kc * get_variable(code + ' ELST ENERGY'), digits, code + ' elst')
compare_values( 8.4297, h2kc * get_variable(code + ' EXCH ENERGY'), digits, code + ' exch')
compare_values(-2.4535, h2kc * get_variable(code + ' INDC ENERGY'), digits, code + ' indc')
compare_values(-2.1384, h2kc * get_variable(code + ' DISP ENERGY'), digits, code + ' disp')
compare_values(-4.3607, h2kc * get_variable(code + ' TOTAL ENERGY'), digits, code)

code = 'SAPT2+(3)DMP2'  # SAPT3M-SA-adz
compare_values(-8.1985, h2kc * get_variable(code + ' ELST ENERGY'), digits, code + ' elst')
compare_values( 8.4297, h2kc * get_variable(code + ' EXCH ENERGY'), digits, code + ' exch')
compare_values(-2.6152, h2kc * get_variable(code + ' INDC ENERGY'), digits, code + ' indc')
compare_values(-2.1610, h2kc * get_variable(code + ' DISP ENERGY'), digits, code + ' disp')
compare_values(-4.5450, h2kc * get_variable(code + ' TOTAL ENERGY'), digits, code)

code = 'SAPT2+(3)(CCD)DMP2'  # SAPT3CM-SA-adz
compare_values(-8.1985, h2kc * get_variable(code + ' ELST ENERGY'), digits, code + ' elst')
compare_values( 8.4297, h2kc * get_variable(code + ' EXCH ENERGY'), digits, code + ' exch')
compare_values(-2.6152, h2kc * get_variable(code + ' INDC ENERGY'), digits, code + ' indc')
compare_values(-2.1384, h2kc * get_variable(code + ' DISP ENERGY'), digits, code + ' disp')
compare_values(-4.5224, h2kc * get_variable(code + ' TOTAL ENERGY'), digits, code)

# SAPT2+3

code = 'SAPT2+3'  # SAPT3F-SA-adz
compare_values(-8.1985, h2kc * get_variable(code + ' ELST ENERGY'), digits, code + ' elst')
compare_values( 8.4297, h2kc * get_variable(code + ' EXCH ENERGY'), digits, code + ' exch')
compare_values(-2.4535, h2kc * get_variable(code + ' INDC ENERGY'), digits, code + ' indc')
compare_values(-2.2653, h2kc * get_variable(code + ' DISP ENERGY'), digits, code + ' disp')
compare_values(-4.4876, h2kc * get_variable(code + ' TOTAL ENERGY'), digits, code)

code = 'SAPT2+3(CCD)'  # SAPT3FC-SA-adz (SAPTCCD)
compare_values(-8.1985, h2kc * get_variable(code + ' ELST ENERGY'), digits, code + ' elst')
compare_values( 8.4297, h2kc * get_variable(code + ' EXCH ENERGY'), digits, code + ' exch')
compare_values(-2.4535, h2kc * get_variable(code + ' INDC ENERGY'), digits, code + ' indc')
compare_values(-2.2427, h2kc * get_variable(code + ' DISP ENERGY'), digits, code + ' disp')
compare_values(-4.4649, h2kc * get_variable(code + ' TOTAL ENERGY'), digits, code)

code = 'SAPT2+3DMP2'  # SAPT3FM-SA-adz
compare_values(-8.1985, h2kc * get_variable(code + ' ELST ENERGY'), digits, code + ' elst')
compare_values( 8.4297, h2kc * get_variable(code + ' EXCH ENERGY'), digits, code + ' exch')
compare_values(-2.5225, h2kc * get_variable(code + ' INDC ENERGY'), digits, code + ' indc')
compare_values(-2.2653, h2kc * get_variable(code + ' DISP ENERGY'), digits, code + ' disp')
compare_values(-4.5566, h2kc * get_variable(code + ' TOTAL ENERGY'), digits, code)

code = 'SAPT2+3(CCD)DMP2'  # SAPT3FCM-SA-adz (SAPTCCDM)
compare_values(-8.1985, h2kc * get_variable(code + ' ELST ENERGY'), digits, code + ' elst')
compare_values( 8.4297, h2kc * get_variable(code + ' EXCH ENERGY'), digits, code + ' exch')
compare_values(-2.5225, h2kc * get_variable(code + ' INDC ENERGY'), digits, code + ' indc')
compare_values(-2.2427, h2kc * get_variable(code + ' DISP ENERGY'), digits, code + ' disp')
compare_values(-4.5339, h2kc * get_variable(code + ' TOTAL ENERGY'), digits, code)

--------------------------------------------------------------------------
  SAPT does not make use of molecular symmetry, further calculations in C1 point group.

  //>>>>>>>>>>>>>>>>>>>>>>>>>>>>>>>>>>>//
  //              Dimer HF             //
  //<<<<<<<<<<<<<<<<<<<<<<<<<<<<<<<<<<<//


*** tstart() called on ariadne
*** at Fri Jan  8 01:36:19 2016

   => Loading Basis Set <=

    Role: BASIS
    Keyword: BASIS
    Name: JUN-CC-PVDZ
    atoms 1, 4     entry O          line   225 file /Users/loriab/linux/psihub/master/psi4/lib/basis/jun-cc-pvdz.gbs
    atoms 2-3, 5-6 entry H          line    35 file /Users/loriab/linux/psihub/master/psi4/lib/basis/jun-cc-pvdz.gbs


         ---------------------------------------------------------
                                   SCF
            by Justin Turney, Rob Parrish, and Andy Simmonett
                              RHF Reference
                        1 Threads,    256 MiB Core
         ---------------------------------------------------------

  ==> Geometry <==

    Molecular point group: c1
    Full point group: Cs

    Geometry (in Angstrom), charge = 0, multiplicity = 1:

       Center              X                  Y                   Z               Mass       
    ------------   -----------------  -----------------  -----------------  -----------------
           O         -1.485163346097    -0.114724564047     0.000000000000    15.994914619560
           H         -1.868415346097     0.762298435953     0.000000000000     1.007825032070
           H         -0.533833346097     0.040507435953     0.000000000000     1.007825032070
           O          1.416468653903     0.111264435953     0.000000000000    15.994914619560
           H          1.746241653903    -0.373945564047    -0.758561000000     1.007825032070
           H          1.746241653903    -0.373945564047     0.758561000000     1.007825032070

           O
              BASIS           JUN-CC-PVDZ          d8d988eb85ed77626e0a22d0d48f2e0f72bf06fa
           H
              BASIS           JUN-CC-PVDZ          ffa48e68d852b7ce2683e22f1b3edf2f547a71f6
           H
              BASIS           JUN-CC-PVDZ          ffa48e68d852b7ce2683e22f1b3edf2f547a71f6
           O
              BASIS           JUN-CC-PVDZ          d8d988eb85ed77626e0a22d0d48f2e0f72bf06fa
           H
              BASIS           JUN-CC-PVDZ          ffa48e68d852b7ce2683e22f1b3edf2f547a71f6
           H
              BASIS           JUN-CC-PVDZ          ffa48e68d852b7ce2683e22f1b3edf2f547a71f6

  Running in c1 symmetry.

  Rotational constants: A =      7.15151  B =      0.21457  C =      0.21447 [cm^-1]
  Rotational constants: A = 214396.91676  B =   6432.69056  C =   6429.61813 [MHz]
  Nuclear repulsion =   36.662847852755299

  Charge       = 0
  Multiplicity = 1
  Electrons    = 20
  Nalpha       = 10
  Nbeta        = 10

  ==> Algorithm <==

  SCF Algorithm Type is DF.
  DIIS enabled.
  MOM disabled.
  Fractional occupation disabled.
  Guess Type is CORE.
  Energy threshold   = 1.00e-08
  Density threshold  = 1.00e-08
  Integral threshold = 0.00e+00

  ==> Primary Basis <==

  -AO BASIS SET INFORMATION:
    Name                   = JUN-CC-PVDZ
    Total number of shells = 28
    Number of primitives   = 68
    Number of AO           = 58
    Number of SO           = 56
    Maximum AM             = 2
    Spherical Harmonics    = TRUE

  -Contraction Scheme:
    Atom   Type   All Primitives // Shells:
   ------ ------ --------------------------
       1     O     18s 5p 1d // 4s 3p 1d 
       2     H     4s 1p // 2s 1p 
       3     H     4s 1p // 2s 1p 
       4     O     18s 5p 1d // 4s 3p 1d 
       5     H     4s 1p // 2s 1p 
       6     H     4s 1p // 2s 1p 

  ==> AO Basis Functions <==

    [ JUN-CC-PVDZ ]
    spherical
    ****
    O   1
    S   8 1.00
                     11720.00000000           0.00071000
                      1759.00000000           0.00547000
                       400.80000000           0.02783700
                       113.70000000           0.10480000
                        37.03000000           0.28306200
                        13.27000000           0.44871900
                         5.02500000           0.27095200
                         1.01300000           0.01545800
    S   8 1.00
                     11720.00000000          -0.00016000
                      1759.00000000          -0.00126300
                       400.80000000          -0.00626700
                       113.70000000          -0.02571600
                        37.03000000          -0.07092400
                        13.27000000          -0.16541100
                         5.02500000          -0.11695500
                         1.01300000           0.55736800
    S   1 1.00
                         0.30230000           1.00000000
    P   3 1.00
                        17.70000000           0.04301800
                         3.85400000           0.22891300
                         1.04600000           0.50872800
    P   1 1.00
                         0.27530000           1.00000000
    D   1 1.00
                         1.18500000           1.00000000
    S   1 1.00
                         0.07896000           1.00000000
    P   1 1.00
                         0.06856000           1.00000000
    ****
    H   2
    S   3 1.00
                        13.01000000           0.01968500
                         1.96200000           0.13797700
                         0.44460000           0.47814800
    S   1 1.00
                         0.12200000           1.00000000
    P   1 1.00
                         0.72700000           1.00000000
    ****
    H   3
    S   3 1.00
                        13.01000000           0.01968500
                         1.96200000           0.13797700
                         0.44460000           0.47814800
    S   1 1.00
                         0.12200000           1.00000000
    P   1 1.00
                         0.72700000           1.00000000
    ****
    O   4
    S   8 1.00
                     11720.00000000           0.00071000
                      1759.00000000           0.00547000
                       400.80000000           0.02783700
                       113.70000000           0.10480000
                        37.03000000           0.28306200
                        13.27000000           0.44871900
                         5.02500000           0.27095200
                         1.01300000           0.01545800
    S   8 1.00
                     11720.00000000          -0.00016000
                      1759.00000000          -0.00126300
                       400.80000000          -0.00626700
                       113.70000000          -0.02571600
                        37.03000000          -0.07092400
                        13.27000000          -0.16541100
                         5.02500000          -0.11695500
                         1.01300000           0.55736800
    S   1 1.00
                         0.30230000           1.00000000
    P   3 1.00
                        17.70000000           0.04301800
                         3.85400000           0.22891300
                         1.04600000           0.50872800
    P   1 1.00
                         0.27530000           1.00000000
    D   1 1.00
                         1.18500000           1.00000000
    S   1 1.00
                         0.07896000           1.00000000
    P   1 1.00
                         0.06856000           1.00000000
    ****
    H   5
    S   3 1.00
                        13.01000000           0.01968500
                         1.96200000           0.13797700
                         0.44460000           0.47814800
    S   1 1.00
                         0.12200000           1.00000000
    P   1 1.00
                         0.72700000           1.00000000
    ****
    H   6
    S   3 1.00
                        13.01000000           0.01968500
                         1.96200000           0.13797700
                         0.44460000           0.47814800
    S   1 1.00
                         0.12200000           1.00000000
    P   1 1.00
                         0.72700000           1.00000000
    ****

  ==> Pre-Iterations <==

   -------------------------------------------------------
    Irrep   Nso     Nmo     Nalpha   Nbeta   Ndocc  Nsocc
   -------------------------------------------------------
     A         56      56       0       0       0       0
   -------------------------------------------------------
    Total      56      56      10      10      10       0
   -------------------------------------------------------

   => Loading Basis Set <=

    Role: BASIS
    Keyword: BASIS
    Name: JUN-CC-PVDZ
    atoms 1, 4     entry O          line   225 file /Users/loriab/linux/psihub/master/psi4/lib/basis/jun-cc-pvdz.gbs
    atoms 2-3, 5-6 entry H          line    35 file /Users/loriab/linux/psihub/master/psi4/lib/basis/jun-cc-pvdz.gbs

 OEINTS: Overlap, kinetic, potential, dipole, and quadrupole integrals
         stored in file 35.

  ==> Integral Setup <==

   => Loading Basis Set <=

    Role: BASIS
    Keyword: BASIS
    Name: JUN-CC-PVDZ
    atoms 1, 4     entry O          line   225 file /Users/loriab/linux/psihub/master/psi4/lib/basis/jun-cc-pvdz.gbs
    atoms 2-3, 5-6 entry H          line    35 file /Users/loriab/linux/psihub/master/psi4/lib/basis/jun-cc-pvdz.gbs

   => Loading Basis Set <=

    Role: JKFIT
    Keyword: DF_BASIS_SCF
    Name: 
    atoms 1, 4     entry O          line   257 file /Users/loriab/linux/psihub/master/psi4/lib/basis/jun-cc-pvdz-jkfit.gbs
    atoms 2-3, 5-6 entry H          line    69 file /Users/loriab/linux/psihub/master/psi4/lib/basis/jun-cc-pvdz-jkfit.gbs

  ==> DFJK: Density-Fitted J/K Matrices <==

    J tasked:                  Yes
    K tasked:                  Yes
    wK tasked:                  No
    OpenMP threads:              1
    Integrals threads:           1
    Memory (MB):               183
    Algorithm:                Core
    Integral Cache:           SAVE
    Schwarz Cutoff:          1E-12
    Fitting Condition:       1E-12

   => Auxiliary Basis Set <=

  -AO BASIS SET INFORMATION:
    Name                   = 
    Total number of shells = 90
    Number of primitives   = 90
    Number of AO           = 282
    Number of SO           = 250
    Maximum AM             = 3
    Spherical Harmonics    = TRUE

  -Contraction Scheme:
    Atom   Type   All Primitives // Shells:
   ------ ------ --------------------------
       1     O     11s 8p 6d 2f // 11s 8p 6d 2f 
       2     H     4s 3p 2d // 4s 3p 2d 
       3     H     4s 3p 2d // 4s 3p 2d 
       4     O     11s 8p 6d 2f // 11s 8p 6d 2f 
       5     H     4s 3p 2d // 4s 3p 2d 
       6     H     4s 3p 2d // 4s 3p 2d 

  ==> AO Basis Functions <==

    [  ]
    spherical
    ****
    O   1
    S   1 1.00
                      1517.86675060           1.00000000
    S   1 1.00
                       489.67952008           1.00000000
    S   1 1.00
                       176.72118665           1.00000000
    S   1 1.00
                        63.79223314           1.00000000
    S   1 1.00
                        25.36649913           1.00000000
    S   1 1.00
                         9.91354912           1.00000000
    S   1 1.00
                         4.46453066           1.00000000
    S   1 1.00
                         1.80177437           1.00000000
    S   1 1.00
                         0.80789711           1.00000000
    S   1 1.00
                         0.33864327           1.00000000
    P   1 1.00
                       120.16030921           1.00000000
    P   1 1.00
                        34.40962247           1.00000000
    P   1 1.00
                        12.58114861           1.00000000
    P   1 1.00
                         5.06638242           1.00000000
    P   1 1.00
                         2.03469271           1.00000000
    P   1 1.00
                         0.86092967           1.00000000
    P   1 1.00
                         0.36681357           1.00000000
    D   1 1.00
                        19.04306281           1.00000000
    D   1 1.00
                         5.80603811           1.00000000
    D   1 1.00
                         2.18918416           1.00000000
    D   1 1.00
                         0.87794614           1.00000000
    D   1 1.00
                         0.35623647           1.00000000
    F   1 1.00
                         2.49391479           1.00000000
    F   1 1.00
                         0.82491479           1.00000000
    S   1 1.00
                         0.14194786           1.00000000
    P   1 1.00
                         0.15628709           1.00000000
    D   1 1.00
                         0.14454693           1.00000000
    ****
    H   2
    S   1 1.00
                         9.53024933           1.00000000
    S   1 1.00
                         1.91745062           1.00000000
    S   1 1.00
                         0.68424049           1.00000000
    S   1 1.00
                         0.28413256           1.00000000
    P   1 1.00
                         2.91332320           1.00000000
    P   1 1.00
                         1.26212054           1.00000000
    P   1 1.00
                         0.50199776           1.00000000
    D   1 1.00
                         2.31353291           1.00000000
    D   1 1.00
                         0.71290724           1.00000000
    ****
    H   3
    S   1 1.00
                         9.53024933           1.00000000
    S   1 1.00
                         1.91745062           1.00000000
    S   1 1.00
                         0.68424049           1.00000000
    S   1 1.00
                         0.28413256           1.00000000
    P   1 1.00
                         2.91332320           1.00000000
    P   1 1.00
                         1.26212054           1.00000000
    P   1 1.00
                         0.50199776           1.00000000
    D   1 1.00
                         2.31353291           1.00000000
    D   1 1.00
                         0.71290724           1.00000000
    ****
    O   4
    S   1 1.00
                      1517.86675060           1.00000000
    S   1 1.00
                       489.67952008           1.00000000
    S   1 1.00
                       176.72118665           1.00000000
    S   1 1.00
                        63.79223314           1.00000000
    S   1 1.00
                        25.36649913           1.00000000
    S   1 1.00
                         9.91354912           1.00000000
    S   1 1.00
                         4.46453066           1.00000000
    S   1 1.00
                         1.80177437           1.00000000
    S   1 1.00
                         0.80789711           1.00000000
    S   1 1.00
                         0.33864327           1.00000000
    P   1 1.00
                       120.16030921           1.00000000
    P   1 1.00
                        34.40962247           1.00000000
    P   1 1.00
                        12.58114861           1.00000000
    P   1 1.00
                         5.06638242           1.00000000
    P   1 1.00
                         2.03469271           1.00000000
    P   1 1.00
                         0.86092967           1.00000000
    P   1 1.00
                         0.36681357           1.00000000
    D   1 1.00
                        19.04306281           1.00000000
    D   1 1.00
                         5.80603811           1.00000000
    D   1 1.00
                         2.18918416           1.00000000
    D   1 1.00
                         0.87794614           1.00000000
    D   1 1.00
                         0.35623647           1.00000000
    F   1 1.00
                         2.49391479           1.00000000
    F   1 1.00
                         0.82491479           1.00000000
    S   1 1.00
                         0.14194786           1.00000000
    P   1 1.00
                         0.15628709           1.00000000
    D   1 1.00
                         0.14454693           1.00000000
    ****
    H   5
    S   1 1.00
                         9.53024933           1.00000000
    S   1 1.00
                         1.91745062           1.00000000
    S   1 1.00
                         0.68424049           1.00000000
    S   1 1.00
                         0.28413256           1.00000000
    P   1 1.00
                         2.91332320           1.00000000
    P   1 1.00
                         1.26212054           1.00000000
    P   1 1.00
                         0.50199776           1.00000000
    D   1 1.00
                         2.31353291           1.00000000
    D   1 1.00
                         0.71290724           1.00000000
    ****
    H   6
    S   1 1.00
                         9.53024933           1.00000000
    S   1 1.00
                         1.91745062           1.00000000
    S   1 1.00
                         0.68424049           1.00000000
    S   1 1.00
                         0.28413256           1.00000000
    P   1 1.00
                         2.91332320           1.00000000
    P   1 1.00
                         1.26212054           1.00000000
    P   1 1.00
                         0.50199776           1.00000000
    D   1 1.00
                         2.31353291           1.00000000
    D   1 1.00
                         0.71290724           1.00000000
    ****

  Minimum eigenvalue in the overlap matrix is 6.7798161778E-03.
  Using Symmetric Orthogonalization.
  SCF Guess: Core (One-Electron) Hamiltonian.

  ==> Iterations <==

                           Total Energy        Delta E     RMS |[F,P]|

    Occupation by irrep:
              A 
    DOCC [    10 ]

   @DF-RHF iter   1:  -137.49302929346891   -1.37493e+02   8.12662e-02 
DIIS coefficients:  0.425  0.575 
    Occupation by irrep:
              A 
    DOCC [    10 ]

   @DF-RHF iter   2:  -135.85336155601385    1.63967e+00   6.64342e-02 DIIS
DIIS coefficients:  -0.273  0.162  1.111 
    Occupation by irrep:
              A 
    DOCC [    10 ]

   @DF-RHF iter   3:  -151.02335993575883   -1.51700e+01   2.99397e-02 DIIS
DIIS coefficients:  0.028  0.026  -0.624  1.570 
    Occupation by irrep:
              A 
    DOCC [    10 ]

   @DF-RHF iter   4:  -151.90844030744449   -8.85080e-01   1.16682e-02 DIIS
DIIS coefficients:  0.014  0.002  -0.123  0.210  0.896 
    Occupation by irrep:
              A 
    DOCC [    10 ]

   @DF-RHF iter   5:  -152.07856684963733   -1.70127e-01   1.27521e-03 DIIS
DIIS coefficients:  0.002  -0.001  0.019  -0.047  0.249  0.778 
    Occupation by irrep:
              A 
    DOCC [    10 ]

   @DF-RHF iter   6:  -152.08093160558619   -2.36476e-03   6.30955e-04 DIIS
DIIS coefficients:  -0.000  -0.000  0.004  0.009  -0.072  -0.133  1.193 
    Occupation by irrep:
              A 
    DOCC [    10 ]

   @DF-RHF iter   7:  -152.08135139566497   -4.19790e-04   2.18838e-04 DIIS
DIIS coefficients:  -0.000  0.000  -0.001  0.001  0.003  -0.021  -0.249  1.268 
    Occupation by irrep:
              A 
    DOCC [    10 ]

   @DF-RHF iter   8:  -152.08141471825246   -6.33226e-05   3.15942e-05 DIIS
DIIS coefficients:  0.000  0.000  0.000  -0.001  0.002  0.012  0.008  -0.294  1.272 
    Occupation by irrep:
              A 
    DOCC [    10 ]

   @DF-RHF iter   9:  -152.08141736099242   -2.64274e-06   6.25972e-06 DIIS
DIIS coefficients:  -0.000  0.000  -0.000  0.000  -0.001  -0.002  0.004  0.039  -0.276  1.236 
    Occupation by irrep:
              A 
    DOCC [    10 ]

   @DF-RHF iter  10:  -152.08141745315294   -9.21605e-08   1.13288e-06 DIIS
DIIS coefficients:  1.198  -0.000  -0.000  0.000  -0.000  -0.000  -0.001  0.012  -0.034  -0.174 
    Occupation by irrep:
              A 
    DOCC [    10 ]

   @DF-RHF iter  11:  -152.08141745606400   -2.91107e-09   1.98008e-07 DIIS
DIIS coefficients:  -0.334  1.320  0.000  -0.000  0.000  0.000  0.000  -0.005  0.023  -0.004 
    Occupation by irrep:
              A 
    DOCC [    10 ]

   @DF-RHF iter  12:  -152.08141745619906   -1.35060e-10   4.13379e-08 DIIS
DIIS coefficients:  0.045  -0.300  1.254  0.000  -0.000  -0.000  0.000  0.001  -0.003  0.002 
    Occupation by irrep:
              A 
    DOCC [    10 ]

   @DF-RHF iter  13:  -152.08141745620424   -5.17275e-12   5.64372e-09 DIIS

  ==> Post-Iterations <==

    Orbital Energies (a.u.)
    -----------------------

    Doubly Occupied:                                                      

       1A    -20.603072     2A    -20.545973     3A     -1.383875  
       4A     -1.326428     5A     -0.744433     6A     -0.696440  
       7A     -0.615347     8A     -0.560467     9A     -0.530147  
      10A     -0.480576  

    Virtual:                                                              

      11A      0.113581    12A      0.155789    13A      0.165407  
      14A      0.183489    15A      0.205833    16A      0.240287  
      17A      0.241145    18A      0.301123    19A      0.303773  
      20A      0.365976    21A      0.409056    22A      0.447116  
      23A      0.915134    24A      0.966320    25A      1.020877  
      26A      1.057960    27A      1.209584    28A      1.249694  
      29A      1.288333    30A      1.364093    31A      1.391455  
      32A      1.396747    33A      1.445048    34A      1.477761  
      35A      1.506342    36A      1.578446    37A      1.702296  
      38A      1.717813    39A      1.867806    40A      1.916214  
      41A      1.990184    42A      2.100324    43A      2.450741  
      44A      2.472218    45A      2.517666    46A      2.722116  
      47A      3.237332    48A      3.280534    49A      3.301573  
      50A      3.346789    51A      3.474364    52A      3.530470  
      53A      3.849394    54A      3.943139    55A      4.116244  
      56A      4.198709  

    Final Occupation by Irrep:
              A 
    DOCC [    10 ]

  Energy converged.

  @DF-RHF Final Energy:  -152.08141745620424

   => Energetics <=

    Nuclear Repulsion Energy =             36.6628478527552986
    One-Electron Energy =                -282.5150113275676631
    Two-Electron Energy =                  93.7707460186081931
    DFT Exchange-Correlation Energy =       0.0000000000000000
    Empirical Dispersion Energy =           0.0000000000000000
    PCM Polarization Energy =               0.0000000000000000
    EFP Energy =                            0.0000000000000000
    Total Energy =                       -152.0814174562041785

    Alert: EFP and PCM quantities not currently incorporated into SCF psivars.

Properties will be evaluated at   0.000000,   0.000000,   0.000000 Bohr
  ==> Properties <==


Properties computed using the SCF density matrix

  Nuclear Dipole Moment: (a.u.)
     X:     1.0217      Y:     0.0515      Z:     0.0000

  Electronic Dipole Moment: (a.u.)
     X:     0.0535      Y:    -0.0042      Z:    -0.0000

  Dipole Moment: (a.u.)
     X:     1.0753      Y:     0.0472      Z:    -0.0000     Total:     1.0763

  Dipole Moment: (Debye)
     X:     2.7331      Y:     0.1200      Z:    -0.0000     Total:     2.7357

  Quadrupole Moment: (Debye Ang)
    XX:   -11.6489     YY:   -12.6647     ZZ:   -11.8317
    XY:    -6.9794     XZ:     0.0000     YZ:    -0.0000

  Traceless Quadrupole Moment: (Debye Ang)
    XX:     0.3995     YY:    -0.6163     ZZ:     0.2168
    XY:    -6.9794     XZ:     0.0000     YZ:    -0.0000

  Mulliken Charges: (a.u.)
   Center  Symbol    Alpha    Beta     Spin     Total
       1     O     4.25195  4.25195  0.00000 -0.50390
       2     H     0.38901  0.38901  0.00000  0.22198
       3     H     0.35965  0.35965  0.00000  0.28070
       4     O     4.24666  4.24666  0.00000 -0.49332
       5     H     0.37637  0.37637  0.00000  0.24727
       6     H     0.37637  0.37637  0.00000  0.24727

   Total alpha = 10.00000, Total beta = 10.00000, Total charge = -0.00000



  Lowdin Charges [a.u.]:

   Center  Symbol    Alpha    Beta     Spin     Total
       1     O     4.12227  4.12227  0.00000 -0.24454
       2     H     0.44816  0.44816  0.00000  0.10369
       3     H     0.44630  0.44630  0.00000  0.10739
       4     O     4.10073  4.10073  0.00000 -0.20146
       5     H     0.44127  0.44127  0.00000  0.11746
       6     H     0.44127  0.44127  0.00000  0.11746

  Total alpha = 10.00000, Total beta = 10.00000, Total charge = -0.00000


  Mayer Bond Indices:

  Irrep: 1 Size: 6 x 6

                 1                   2                   3                   4                   5

    1     0.00000000000000     0.96483479187202     0.92145369514020    -0.03138285227536     0.00001680457557
    2     0.96483479187202     0.00000000000000     0.00793345677295     0.00226926384736     0.00026145895801
    3     0.92145369514020     0.00793345677295     0.00000000000000     0.01642564415353    -0.00015068558875
    4    -0.03138285227536     0.00226926384736     0.01642564415353     0.00000000000000     0.95499138433273
    5     0.00001680457557     0.00026145895801    -0.00015068558875     0.95499138433273     0.00000000000000
    6     0.00001680457556     0.00026145895801    -0.00015068558876     0.95499138433309     0.00805862168054

                 6

    1     0.00001680457556
    2     0.00026145895801
    3    -0.00015068558876
    4     0.95499138433309
    5     0.00805862168054
    6     0.00000000000000



  Atomic Valences: 

 #  #
 Irrep: 1
      1:  1.8549392
      2:  0.9755604
      3:  0.9455114
      4:  1.8972948
      5:  0.9631776
      6:  0.9631776



  Wiberg Bond Indices using Orthogonal Lowdin Orbitals:

  Irrep: 1 Size: 6 x 6

                 1                   2                   3                   4                   5

    1     0.00000000000000     1.16227346855951     1.11568908479256     0.06609197188261     0.00323001260074
    2     1.16227346855951     0.00000000000000     0.05849415891845     0.00235070374327     0.00011180075775
    3     1.11568908479256     0.05849415891845     0.00000000000000     0.08177810499904     0.00227410610503
    4     0.06609197188261     0.00235070374327     0.08177810499904     0.00000000000000     1.14559262365480
    5     0.00323001260074     0.00011180075775     0.00227410610503     1.14559262365480     0.00000000000000
    6     0.00323001260074     0.00011180075775     0.00227410610503     1.14559262365478     0.05893634923552

                 6

    1     0.00323001260074
    2     0.00011180075775
    3     0.00227410610503
    4     1.14559262365478
    5     0.05893634923552
    6     0.00000000000000



  Atomic Valences: 

 #  #
 Irrep: 1
      1:  2.3505146
      2:  1.2233419
      3:  1.2605096
      4:  2.4414060
      5:  1.2101449
      6:  1.2101449


  Saving occupied orbitals to File 180.
   => Loading Basis Set <=

    Role: BASIS
    Keyword: BASIS
    Name: JUN-CC-PVDZ
    atoms 1, 4     entry O          line   225 file /Users/loriab/linux/psihub/master/psi4/lib/basis/jun-cc-pvdz.gbs
    atoms 2-3, 5-6 entry H          line    35 file /Users/loriab/linux/psihub/master/psi4/lib/basis/jun-cc-pvdz.gbs


  Saving SAPT 2-DIMER file.

*** tstop() called on ariadne at Fri Jan  8 01:36:20 2016
Module time:
	user time   =       0.58 seconds =       0.01 minutes
	system time =       0.04 seconds =       0.00 minutes
	total time  =          1 seconds =       0.02 minutes
Total time:
	user time   =       0.58 seconds =       0.01 minutes
	system time =       0.04 seconds =       0.00 minutes
	total time  =          1 seconds =       0.02 minutes

  //>>>>>>>>>>>>>>>>>>>>>>>>>>>>>>>>>>>//
  //            Monomer A HF           //
  //<<<<<<<<<<<<<<<<<<<<<<<<<<<<<<<<<<<//


*** tstart() called on ariadne
*** at Fri Jan  8 01:36:20 2016

   => Loading Basis Set <=

    Role: BASIS
    Keyword: BASIS
    Name: JUN-CC-PVDZ
    atoms 1, 4     entry O          line   225 file /Users/loriab/linux/psihub/master/psi4/lib/basis/jun-cc-pvdz.gbs
    atoms 2-3, 5-6 entry H          line    35 file /Users/loriab/linux/psihub/master/psi4/lib/basis/jun-cc-pvdz.gbs


         ---------------------------------------------------------
                                   SCF
            by Justin Turney, Rob Parrish, and Andy Simmonett
                              RHF Reference
                        1 Threads,    256 MiB Core
         ---------------------------------------------------------

  ==> Geometry <==

    Molecular point group: c1
    Full point group: Cs

    Geometry (in Angstrom), charge = 0, multiplicity = 1:

       Center              X                  Y                   Z               Mass       
    ------------   -----------------  -----------------  -----------------  -----------------
           O         -1.485163346097    -0.114724564047     0.000000000000    15.994914619560
           H         -1.868415346097     0.762298435953     0.000000000000     1.007825032070
           H         -0.533833346097     0.040507435953     0.000000000000     1.007825032070
           O(Gh)      1.416468653903     0.111264435953     0.000000000000    15.994914619560
           H(Gh)      1.746241653903    -0.373945564047    -0.758561000000     1.007825032070
           H(Gh)      1.746241653903    -0.373945564047     0.758561000000     1.007825032070

           O
              BASIS           JUN-CC-PVDZ          d8d988eb85ed77626e0a22d0d48f2e0f72bf06fa
           H
              BASIS           JUN-CC-PVDZ          ffa48e68d852b7ce2683e22f1b3edf2f547a71f6
           H
              BASIS           JUN-CC-PVDZ          ffa48e68d852b7ce2683e22f1b3edf2f547a71f6
           O
              BASIS           JUN-CC-PVDZ          d8d988eb85ed77626e0a22d0d48f2e0f72bf06fa
           H
              BASIS           JUN-CC-PVDZ          ffa48e68d852b7ce2683e22f1b3edf2f547a71f6
           H
              BASIS           JUN-CC-PVDZ          ffa48e68d852b7ce2683e22f1b3edf2f547a71f6

  Running in c1 symmetry.

  Rotational constants: A =      7.15151  B =      0.21457  C =      0.21447 [cm^-1]
  Rotational constants: A = 214396.91676  B =   6432.69056  C =   6429.61813 [MHz]
  Nuclear repulsion =    9.163830145965930

  Charge       = 0
  Multiplicity = 1
  Electrons    = 10
  Nalpha       = 5
  Nbeta        = 5

  ==> Algorithm <==

  SCF Algorithm Type is DF.
  DIIS enabled.
  MOM disabled.
  Fractional occupation disabled.
  Guess Type is CORE.
  Energy threshold   = 1.00e-08
  Density threshold  = 1.00e-08
  Integral threshold = 0.00e+00

  ==> Primary Basis <==

  -AO BASIS SET INFORMATION:
    Name                   = JUN-CC-PVDZ
    Total number of shells = 28
    Number of primitives   = 68
    Number of AO           = 58
    Number of SO           = 56
    Maximum AM             = 2
    Spherical Harmonics    = TRUE

  -Contraction Scheme:
    Atom   Type   All Primitives // Shells:
   ------ ------ --------------------------
       1     O     18s 5p 1d // 4s 3p 1d 
       2     H     4s 1p // 2s 1p 
       3     H     4s 1p // 2s 1p 
       4     O     18s 5p 1d // 4s 3p 1d 
       5     H     4s 1p // 2s 1p 
       6     H     4s 1p // 2s 1p 

  ==> AO Basis Functions <==

    [ JUN-CC-PVDZ ]
    spherical
    ****
    O   1
    S   8 1.00
                     11720.00000000           0.00071000
                      1759.00000000           0.00547000
                       400.80000000           0.02783700
                       113.70000000           0.10480000
                        37.03000000           0.28306200
                        13.27000000           0.44871900
                         5.02500000           0.27095200
                         1.01300000           0.01545800
    S   8 1.00
                     11720.00000000          -0.00016000
                      1759.00000000          -0.00126300
                       400.80000000          -0.00626700
                       113.70000000          -0.02571600
                        37.03000000          -0.07092400
                        13.27000000          -0.16541100
                         5.02500000          -0.11695500
                         1.01300000           0.55736800
    S   1 1.00
                         0.30230000           1.00000000
    P   3 1.00
                        17.70000000           0.04301800
                         3.85400000           0.22891300
                         1.04600000           0.50872800
    P   1 1.00
                         0.27530000           1.00000000
    D   1 1.00
                         1.18500000           1.00000000
    S   1 1.00
                         0.07896000           1.00000000
    P   1 1.00
                         0.06856000           1.00000000
    ****
    H   2
    S   3 1.00
                        13.01000000           0.01968500
                         1.96200000           0.13797700
                         0.44460000           0.47814800
    S   1 1.00
                         0.12200000           1.00000000
    P   1 1.00
                         0.72700000           1.00000000
    ****
    H   3
    S   3 1.00
                        13.01000000           0.01968500
                         1.96200000           0.13797700
                         0.44460000           0.47814800
    S   1 1.00
                         0.12200000           1.00000000
    P   1 1.00
                         0.72700000           1.00000000
    ****
    O   4
    S   8 1.00
                     11720.00000000           0.00071000
                      1759.00000000           0.00547000
                       400.80000000           0.02783700
                       113.70000000           0.10480000
                        37.03000000           0.28306200
                        13.27000000           0.44871900
                         5.02500000           0.27095200
                         1.01300000           0.01545800
    S   8 1.00
                     11720.00000000          -0.00016000
                      1759.00000000          -0.00126300
                       400.80000000          -0.00626700
                       113.70000000          -0.02571600
                        37.03000000          -0.07092400
                        13.27000000          -0.16541100
                         5.02500000          -0.11695500
                         1.01300000           0.55736800
    S   1 1.00
                         0.30230000           1.00000000
    P   3 1.00
                        17.70000000           0.04301800
                         3.85400000           0.22891300
                         1.04600000           0.50872800
    P   1 1.00
                         0.27530000           1.00000000
    D   1 1.00
                         1.18500000           1.00000000
    S   1 1.00
                         0.07896000           1.00000000
    P   1 1.00
                         0.06856000           1.00000000
    ****
    H   5
    S   3 1.00
                        13.01000000           0.01968500
                         1.96200000           0.13797700
                         0.44460000           0.47814800
    S   1 1.00
                         0.12200000           1.00000000
    P   1 1.00
                         0.72700000           1.00000000
    ****
    H   6
    S   3 1.00
                        13.01000000           0.01968500
                         1.96200000           0.13797700
                         0.44460000           0.47814800
    S   1 1.00
                         0.12200000           1.00000000
    P   1 1.00
                         0.72700000           1.00000000
    ****

  ==> Pre-Iterations <==

   -------------------------------------------------------
    Irrep   Nso     Nmo     Nalpha   Nbeta   Ndocc  Nsocc
   -------------------------------------------------------
     A         56      56       0       0       0       0
   -------------------------------------------------------
    Total      56      56       5       5       5       0
   -------------------------------------------------------

   => Loading Basis Set <=

    Role: BASIS
    Keyword: BASIS
    Name: JUN-CC-PVDZ
    atoms 1, 4     entry O          line   225 file /Users/loriab/linux/psihub/master/psi4/lib/basis/jun-cc-pvdz.gbs
    atoms 2-3, 5-6 entry H          line    35 file /Users/loriab/linux/psihub/master/psi4/lib/basis/jun-cc-pvdz.gbs

 OEINTS: Overlap, kinetic, potential, dipole, and quadrupole integrals
         stored in file 35.

  ==> Integral Setup <==

   => Loading Basis Set <=

    Role: BASIS
    Keyword: BASIS
    Name: JUN-CC-PVDZ
    atoms 1, 4     entry O          line   225 file /Users/loriab/linux/psihub/master/psi4/lib/basis/jun-cc-pvdz.gbs
    atoms 2-3, 5-6 entry H          line    35 file /Users/loriab/linux/psihub/master/psi4/lib/basis/jun-cc-pvdz.gbs

   => Loading Basis Set <=

    Role: JKFIT
    Keyword: DF_BASIS_SCF
    Name: 
    atoms 1, 4     entry O          line   257 file /Users/loriab/linux/psihub/master/psi4/lib/basis/jun-cc-pvdz-jkfit.gbs
    atoms 2-3, 5-6 entry H          line    69 file /Users/loriab/linux/psihub/master/psi4/lib/basis/jun-cc-pvdz-jkfit.gbs

  ==> DFJK: Density-Fitted J/K Matrices <==

    J tasked:                  Yes
    K tasked:                  Yes
    wK tasked:                  No
    OpenMP threads:              1
    Integrals threads:           1
    Memory (MB):               183
    Algorithm:                Core
    Integral Cache:           LOAD
    Schwarz Cutoff:          1E-12
    Fitting Condition:       1E-12

   => Auxiliary Basis Set <=

  -AO BASIS SET INFORMATION:
    Name                   = 
    Total number of shells = 90
    Number of primitives   = 90
    Number of AO           = 282
    Number of SO           = 250
    Maximum AM             = 3
    Spherical Harmonics    = TRUE

  -Contraction Scheme:
    Atom   Type   All Primitives // Shells:
   ------ ------ --------------------------
       1     O     11s 8p 6d 2f // 11s 8p 6d 2f 
       2     H     4s 3p 2d // 4s 3p 2d 
       3     H     4s 3p 2d // 4s 3p 2d 
       4     O     11s 8p 6d 2f // 11s 8p 6d 2f 
       5     H     4s 3p 2d // 4s 3p 2d 
       6     H     4s 3p 2d // 4s 3p 2d 

  ==> AO Basis Functions <==

    [  ]
    spherical
    ****
    O   1
    S   1 1.00
                      1517.86675060           1.00000000
    S   1 1.00
                       489.67952008           1.00000000
    S   1 1.00
                       176.72118665           1.00000000
    S   1 1.00
                        63.79223314           1.00000000
    S   1 1.00
                        25.36649913           1.00000000
    S   1 1.00
                         9.91354912           1.00000000
    S   1 1.00
                         4.46453066           1.00000000
    S   1 1.00
                         1.80177437           1.00000000
    S   1 1.00
                         0.80789711           1.00000000
    S   1 1.00
                         0.33864327           1.00000000
    P   1 1.00
                       120.16030921           1.00000000
    P   1 1.00
                        34.40962247           1.00000000
    P   1 1.00
                        12.58114861           1.00000000
    P   1 1.00
                         5.06638242           1.00000000
    P   1 1.00
                         2.03469271           1.00000000
    P   1 1.00
                         0.86092967           1.00000000
    P   1 1.00
                         0.36681357           1.00000000
    D   1 1.00
                        19.04306281           1.00000000
    D   1 1.00
                         5.80603811           1.00000000
    D   1 1.00
                         2.18918416           1.00000000
    D   1 1.00
                         0.87794614           1.00000000
    D   1 1.00
                         0.35623647           1.00000000
    F   1 1.00
                         2.49391479           1.00000000
    F   1 1.00
                         0.82491479           1.00000000
    S   1 1.00
                         0.14194786           1.00000000
    P   1 1.00
                         0.15628709           1.00000000
    D   1 1.00
                         0.14454693           1.00000000
    ****
    H   2
    S   1 1.00
                         9.53024933           1.00000000
    S   1 1.00
                         1.91745062           1.00000000
    S   1 1.00
                         0.68424049           1.00000000
    S   1 1.00
                         0.28413256           1.00000000
    P   1 1.00
                         2.91332320           1.00000000
    P   1 1.00
                         1.26212054           1.00000000
    P   1 1.00
                         0.50199776           1.00000000
    D   1 1.00
                         2.31353291           1.00000000
    D   1 1.00
                         0.71290724           1.00000000
    ****
    H   3
    S   1 1.00
                         9.53024933           1.00000000
    S   1 1.00
                         1.91745062           1.00000000
    S   1 1.00
                         0.68424049           1.00000000
    S   1 1.00
                         0.28413256           1.00000000
    P   1 1.00
                         2.91332320           1.00000000
    P   1 1.00
                         1.26212054           1.00000000
    P   1 1.00
                         0.50199776           1.00000000
    D   1 1.00
                         2.31353291           1.00000000
    D   1 1.00
                         0.71290724           1.00000000
    ****
    O   4
    S   1 1.00
                      1517.86675060           1.00000000
    S   1 1.00
                       489.67952008           1.00000000
    S   1 1.00
                       176.72118665           1.00000000
    S   1 1.00
                        63.79223314           1.00000000
    S   1 1.00
                        25.36649913           1.00000000
    S   1 1.00
                         9.91354912           1.00000000
    S   1 1.00
                         4.46453066           1.00000000
    S   1 1.00
                         1.80177437           1.00000000
    S   1 1.00
                         0.80789711           1.00000000
    S   1 1.00
                         0.33864327           1.00000000
    P   1 1.00
                       120.16030921           1.00000000
    P   1 1.00
                        34.40962247           1.00000000
    P   1 1.00
                        12.58114861           1.00000000
    P   1 1.00
                         5.06638242           1.00000000
    P   1 1.00
                         2.03469271           1.00000000
    P   1 1.00
                         0.86092967           1.00000000
    P   1 1.00
                         0.36681357           1.00000000
    D   1 1.00
                        19.04306281           1.00000000
    D   1 1.00
                         5.80603811           1.00000000
    D   1 1.00
                         2.18918416           1.00000000
    D   1 1.00
                         0.87794614           1.00000000
    D   1 1.00
                         0.35623647           1.00000000
    F   1 1.00
                         2.49391479           1.00000000
    F   1 1.00
                         0.82491479           1.00000000
    S   1 1.00
                         0.14194786           1.00000000
    P   1 1.00
                         0.15628709           1.00000000
    D   1 1.00
                         0.14454693           1.00000000
    ****
    H   5
    S   1 1.00
                         9.53024933           1.00000000
    S   1 1.00
                         1.91745062           1.00000000
    S   1 1.00
                         0.68424049           1.00000000
    S   1 1.00
                         0.28413256           1.00000000
    P   1 1.00
                         2.91332320           1.00000000
    P   1 1.00
                         1.26212054           1.00000000
    P   1 1.00
                         0.50199776           1.00000000
    D   1 1.00
                         2.31353291           1.00000000
    D   1 1.00
                         0.71290724           1.00000000
    ****
    H   6
    S   1 1.00
                         9.53024933           1.00000000
    S   1 1.00
                         1.91745062           1.00000000
    S   1 1.00
                         0.68424049           1.00000000
    S   1 1.00
                         0.28413256           1.00000000
    P   1 1.00
                         2.91332320           1.00000000
    P   1 1.00
                         1.26212054           1.00000000
    P   1 1.00
                         0.50199776           1.00000000
    D   1 1.00
                         2.31353291           1.00000000
    D   1 1.00
                         0.71290724           1.00000000
    ****

  Minimum eigenvalue in the overlap matrix is 6.7798161778E-03.
  Using Symmetric Orthogonalization.
  SCF Guess: Core (One-Electron) Hamiltonian.

  ==> Iterations <==

                           Total Energy        Delta E     RMS |[F,P]|

    Occupation by irrep:
              A 
    DOCC [     5 ]

   @DF-RHF iter   1:   -68.73229762067908   -6.87323e+01   5.72373e-02 
DIIS coefficients:  0.435  0.565 
    Occupation by irrep:
              A 
    DOCC [     5 ]

   @DF-RHF iter   2:   -66.13498710535004    2.59731e+00   4.84580e-02 DIIS
DIIS coefficients:  -0.304  0.173  1.132 
    Occupation by irrep:
              A 
    DOCC [     5 ]

   @DF-RHF iter   3:   -75.39430550661218   -9.25932e+00   2.29799e-02 DIIS
DIIS coefficients:  0.044  0.026  -0.717  1.647 
    Occupation by irrep:
              A 
    DOCC [     5 ]

   @DF-RHF iter   4:   -75.92071606856950   -5.26411e-01   9.37124e-03 DIIS
DIIS coefficients:  0.009  -0.002  0.011  -0.084  1.066 
    Occupation by irrep:
              A 
    DOCC [     5 ]

   @DF-RHF iter   5:   -76.03639209889650   -1.15676e-01   5.47495e-04 DIIS
DIIS coefficients:  -0.001  -0.001  0.013  0.019  -0.142  1.112 
    Occupation by irrep:
              A 
    DOCC [     5 ]

   @DF-RHF iter   6:   -76.03716050570750   -7.68407e-04   4.25727e-04 DIIS
DIIS coefficients:  -0.000  -0.000  -0.002  0.000  -0.006  -0.323  1.332 
    Occupation by irrep:
              A 
    DOCC [     5 ]

   @DF-RHF iter   7:   -76.03736903075585   -2.08525e-04   7.25231e-05 DIIS
DIIS coefficients:  -0.000  0.000  0.000  -0.001  0.009  0.067  -0.460  1.384 
    Occupation by irrep:
              A 
    DOCC [     5 ]

   @DF-RHF iter   8:   -76.03737906155776   -1.00308e-05   8.12740e-06 DIIS
DIIS coefficients:  -0.000  0.000  -0.000  0.000  -0.003  -0.008  0.090  -0.355  1.276 
    Occupation by irrep:
              A 
    DOCC [     5 ]

   @DF-RHF iter   9:   -76.03737932892928   -2.67372e-07   2.04733e-06 DIIS
DIIS coefficients:  0.000  -0.000  -0.000  -0.000  0.000  -0.002  0.007  -0.009  -0.172  1.177 
    Occupation by irrep:
              A 
    DOCC [     5 ]

   @DF-RHF iter  10:   -76.03737933694342   -8.01414e-09   3.35576e-07 DIIS
DIIS coefficients:  1.294  -0.000  0.000  -0.000  0.000  0.001  -0.008  0.026  -0.034  -0.279 
    Occupation by irrep:
              A 
    DOCC [     5 ]

   @DF-RHF iter  11:   -76.03737933723527   -2.91848e-10   5.85486e-08 DIIS
DIIS coefficients:  -0.416  1.347  -0.000  0.000  -0.000  -0.000  0.002  -0.007  0.011  0.062 
    Occupation by irrep:
              A 
    DOCC [     5 ]

   @DF-RHF iter  12:   -76.03737933724759   -1.23208e-11   9.56654e-09 DIIS

  ==> Post-Iterations <==

    Orbital Energies (a.u.)
    -----------------------

    Doubly Occupied:                                                      

       1A    -20.577348     2A     -1.354910     3A     -0.717035  
       4A     -0.583890     5A     -0.508542  

    Virtual:                                                              

       6A      0.077058     7A      0.131148     8A      0.141446  
       9A      0.150454    10A      0.191039    11A      0.217979  
      12A      0.231385    13A      0.274707    14A      0.342650  
      15A      0.385551    16A      0.396892    17A      0.430286  
      18A      0.688314    19A      0.823400    20A      0.843642  
      21A      0.916089    22A      0.950468    23A      1.037700  
      24A      1.261430    25A      1.359314    26A      1.368625  
      27A      1.472178    28A      1.523556    29A      1.672495  
      30A      1.785360    31A      1.817804    32A      1.915855  
      33A      1.919362    34A      1.991314    35A      2.037182  
      36A      2.173435    37A      2.336047    38A      2.486060  
      39A      2.541671    40A      2.587023    41A      2.829816  
      42A      3.210315    43A      3.270462    44A      3.320104  
      45A      3.503839    46A      3.910437    47A      4.166983  
      48A      4.418755    49A      4.493515    50A      4.692623  
      51A      4.807062    52A      4.971844    53A      5.537277  
      54A      6.556219    55A      6.988943    56A     33.494131  

    Final Occupation by Irrep:
              A 
    DOCC [     5 ]

  Energy converged.

  @DF-RHF Final Energy:   -76.03737933724759

   => Energetics <=

    Nuclear Repulsion Energy =              9.1638301459659299
    One-Electron Energy =                -122.9189693339953493
    Two-Electron Energy =                  37.7177598507818388
    DFT Exchange-Correlation Energy =       0.0000000000000000
    Empirical Dispersion Energy =           0.0000000000000000
    PCM Polarization Energy =               0.0000000000000000
    EFP Energy =                            0.0000000000000000
    Total Energy =                        -76.0373793372475859

    Alert: EFP and PCM quantities not currently incorporated into SCF psivars.

Properties will be evaluated at   0.000000,   0.000000,   0.000000 Bohr
  ==> Properties <==


Properties computed using the SCF density matrix

  Nuclear Dipole Moment: (a.u.)
     X:   -26.9920      Y:    -0.2173      Z:     0.0000

  Electronic Dipole Moment: (a.u.)
     X:    27.4045      Y:     0.9743      Z:    -0.0000

  Dipole Moment: (a.u.)
     X:     0.4125      Y:     0.7570      Z:    -0.0000     Total:     0.8621

  Dipole Moment: (Debye)
     X:     1.0484      Y:     1.9242      Z:    -0.0000     Total:     2.1913

  Quadrupole Moment: (Debye Ang)
    XX:    -7.7470     YY:    -5.8904     ZZ:    -7.5853
    XY:    -3.6073     XZ:     0.0000     YZ:     0.0000

  Traceless Quadrupole Moment: (Debye Ang)
    XX:    -0.6728     YY:     1.1838     ZZ:    -0.5110
    XY:    -3.6073     XZ:     0.0000     YZ:     0.0000

  Mulliken Charges: (a.u.)
   Center  Symbol    Alpha    Beta     Spin     Total
       1     O     4.23516  4.23516  0.00000 -0.47032
       2     H     0.38550  0.38550  0.00000  0.22900
       3     H     0.37701  0.37701  0.00000  0.24597
       4     O     0.00241  0.00241  0.00000 -0.00483
       5     H    -0.00004 -0.00004  0.00000  0.00009
       6     H    -0.00004 -0.00004  0.00000  0.00009

   Total alpha =  5.00000, Total beta =  5.00000, Total charge = -0.00000



  Lowdin Charges [a.u.]:

   Center  Symbol    Alpha    Beta     Spin     Total
       1     O     4.10004  4.10004  0.00000 -0.20007
       2     H     0.44565  0.44565  0.00000  0.10869
       3     H     0.43718  0.43718  0.00000  0.12564
       4     O     0.01647  0.01647  0.00000 -0.03293
       5     H     0.00033  0.00033  0.00000 -0.00066
       6     H     0.00033  0.00033  0.00000 -0.00066

  Total alpha =  5.00000, Total beta =  5.00000, Total charge = -0.00000


  Mayer Bond Indices:

  Irrep: 1 Size: 6 x 6

                 1                   2                   3                   4                   5

    1     0.00000000000000     0.96098578372014     0.94786487549818     0.00727072872255    -0.00009804713470
    2     0.96098578372014     0.00000000000000     0.00927348480653    -0.00016423012229     0.00001089576456
    3     0.94786487549818     0.00927348480653     0.00000000000000     0.00254300053031    -0.00008726427808
    4     0.00727072872255    -0.00016423012229     0.00254300053031     0.00000000000000     0.00000018124297
    5    -0.00009804713470     0.00001089576456    -0.00008726427808     0.00000018124297     0.00000000000000
    6    -0.00009804713469     0.00001089576456    -0.00008726427807     0.00000018124297     0.00000013891744

                 6

    1    -0.00009804713469
    2     0.00001089576456
    3    -0.00008726427807
    4     0.00000018124297
    5     0.00000013891744
    6     0.00000000000000



  Atomic Valences: 

 #  #
 Irrep: 1
      1:  1.9159253
      2:  0.9701168
      3:  0.9595068
      4:  0.0096499
      5: -0.0001741
      6: -0.0001741



  Wiberg Bond Indices using Orthogonal Lowdin Orbitals:

  Irrep: 1 Size: 6 x 6

                 1                   2                   3                   4                   5

    1     0.00000000000000     1.15654912781651     1.12712466888997     0.04350294951587     0.00094694884629
    2     1.15654912781651     0.00000000000000     0.05886188551321     0.00189390579807     0.00006618825649
    3     1.12712466888997     0.05886188551321     0.00000000000000     0.01968238818556     0.00029599164370
    4     0.04350294951587     0.00189390579807     0.01968238818556     0.00000000000000     0.00001368119978
    5     0.00094694884629     0.00006618825649     0.00029599164370     0.00001368119978     0.00000000000000
    6     0.00094694884629     0.00006618825649     0.00029599164370     0.00001368119978     0.00000040118522

                 6

    1     0.00094694884629
    2     0.00006618825649
    3     0.00029599164370
    4     0.00001368119978
    5     0.00000040118522
    6     0.00000000000000



  Atomic Valences: 

 #  #
 Irrep: 1
      1:  2.3290706
      2:  1.2174373
      3:  1.2062609
      4:  0.0651066
      5:  0.0013232
      6:  0.0013232


  Saving occupied orbitals to File 180.
   => Loading Basis Set <=

    Role: BASIS
    Keyword: BASIS
    Name: JUN-CC-PVDZ
    atoms 1, 4     entry O          line   225 file /Users/loriab/linux/psihub/master/psi4/lib/basis/jun-cc-pvdz.gbs
    atoms 2-3, 5-6 entry H          line    35 file /Users/loriab/linux/psihub/master/psi4/lib/basis/jun-cc-pvdz.gbs


  Saving SAPT 2-MONOMER_A file.

*** tstop() called on ariadne at Fri Jan  8 01:36:20 2016
Module time:
	user time   =       0.36 seconds =       0.01 minutes
	system time =       0.02 seconds =       0.00 minutes
	total time  =          0 seconds =       0.00 minutes
Total time:
	user time   =       0.96 seconds =       0.02 minutes
	system time =       0.06 seconds =       0.00 minutes
	total time  =          1 seconds =       0.02 minutes

  //>>>>>>>>>>>>>>>>>>>>>>>>>>>>>>>>>>>//
  //            Monomer B HF           //
  //<<<<<<<<<<<<<<<<<<<<<<<<<<<<<<<<<<<//


*** tstart() called on ariadne
*** at Fri Jan  8 01:36:20 2016

   => Loading Basis Set <=

    Role: BASIS
    Keyword: BASIS
    Name: JUN-CC-PVDZ
    atoms 1, 4     entry O          line   225 file /Users/loriab/linux/psihub/master/psi4/lib/basis/jun-cc-pvdz.gbs
    atoms 2-3, 5-6 entry H          line    35 file /Users/loriab/linux/psihub/master/psi4/lib/basis/jun-cc-pvdz.gbs


         ---------------------------------------------------------
                                   SCF
            by Justin Turney, Rob Parrish, and Andy Simmonett
                              RHF Reference
                        1 Threads,    256 MiB Core
         ---------------------------------------------------------

  ==> Geometry <==

    Molecular point group: c1
    Full point group: Cs

    Geometry (in Angstrom), charge = 0, multiplicity = 1:

       Center              X                  Y                   Z               Mass       
    ------------   -----------------  -----------------  -----------------  -----------------
           O(Gh)     -1.485163346097    -0.114724564047     0.000000000000    15.994914619560
           H(Gh)     -1.868415346097     0.762298435953     0.000000000000     1.007825032070
           H(Gh)     -0.533833346097     0.040507435953     0.000000000000     1.007825032070
           O          1.416468653903     0.111264435953     0.000000000000    15.994914619560
           H          1.746241653903    -0.373945564047    -0.758561000000     1.007825032070
           H          1.746241653903    -0.373945564047     0.758561000000     1.007825032070

           O
              BASIS           JUN-CC-PVDZ          d8d988eb85ed77626e0a22d0d48f2e0f72bf06fa
           H
              BASIS           JUN-CC-PVDZ          ffa48e68d852b7ce2683e22f1b3edf2f547a71f6
           H
              BASIS           JUN-CC-PVDZ          ffa48e68d852b7ce2683e22f1b3edf2f547a71f6
           O
              BASIS           JUN-CC-PVDZ          d8d988eb85ed77626e0a22d0d48f2e0f72bf06fa
           H
              BASIS           JUN-CC-PVDZ          ffa48e68d852b7ce2683e22f1b3edf2f547a71f6
           H
              BASIS           JUN-CC-PVDZ          ffa48e68d852b7ce2683e22f1b3edf2f547a71f6

  Running in c1 symmetry.

  Rotational constants: A =      7.15151  B =      0.21457  C =      0.21447 [cm^-1]
  Rotational constants: A = 214396.91676  B =   6432.69056  C =   6429.61813 [MHz]
  Nuclear repulsion =    9.178038904903588

  Charge       = 0
  Multiplicity = 1
  Electrons    = 10
  Nalpha       = 5
  Nbeta        = 5

  ==> Algorithm <==

  SCF Algorithm Type is DF.
  DIIS enabled.
  MOM disabled.
  Fractional occupation disabled.
  Guess Type is CORE.
  Energy threshold   = 1.00e-08
  Density threshold  = 1.00e-08
  Integral threshold = 0.00e+00

  ==> Primary Basis <==

  -AO BASIS SET INFORMATION:
    Name                   = JUN-CC-PVDZ
    Total number of shells = 28
    Number of primitives   = 68
    Number of AO           = 58
    Number of SO           = 56
    Maximum AM             = 2
    Spherical Harmonics    = TRUE

  -Contraction Scheme:
    Atom   Type   All Primitives // Shells:
   ------ ------ --------------------------
       1     O     18s 5p 1d // 4s 3p 1d 
       2     H     4s 1p // 2s 1p 
       3     H     4s 1p // 2s 1p 
       4     O     18s 5p 1d // 4s 3p 1d 
       5     H     4s 1p // 2s 1p 
       6     H     4s 1p // 2s 1p 

  ==> AO Basis Functions <==

    [ JUN-CC-PVDZ ]
    spherical
    ****
    O   1
    S   8 1.00
                     11720.00000000           0.00071000
                      1759.00000000           0.00547000
                       400.80000000           0.02783700
                       113.70000000           0.10480000
                        37.03000000           0.28306200
                        13.27000000           0.44871900
                         5.02500000           0.27095200
                         1.01300000           0.01545800
    S   8 1.00
                     11720.00000000          -0.00016000
                      1759.00000000          -0.00126300
                       400.80000000          -0.00626700
                       113.70000000          -0.02571600
                        37.03000000          -0.07092400
                        13.27000000          -0.16541100
                         5.02500000          -0.11695500
                         1.01300000           0.55736800
    S   1 1.00
                         0.30230000           1.00000000
    P   3 1.00
                        17.70000000           0.04301800
                         3.85400000           0.22891300
                         1.04600000           0.50872800
    P   1 1.00
                         0.27530000           1.00000000
    D   1 1.00
                         1.18500000           1.00000000
    S   1 1.00
                         0.07896000           1.00000000
    P   1 1.00
                         0.06856000           1.00000000
    ****
    H   2
    S   3 1.00
                        13.01000000           0.01968500
                         1.96200000           0.13797700
                         0.44460000           0.47814800
    S   1 1.00
                         0.12200000           1.00000000
    P   1 1.00
                         0.72700000           1.00000000
    ****
    H   3
    S   3 1.00
                        13.01000000           0.01968500
                         1.96200000           0.13797700
                         0.44460000           0.47814800
    S   1 1.00
                         0.12200000           1.00000000
    P   1 1.00
                         0.72700000           1.00000000
    ****
    O   4
    S   8 1.00
                     11720.00000000           0.00071000
                      1759.00000000           0.00547000
                       400.80000000           0.02783700
                       113.70000000           0.10480000
                        37.03000000           0.28306200
                        13.27000000           0.44871900
                         5.02500000           0.27095200
                         1.01300000           0.01545800
    S   8 1.00
                     11720.00000000          -0.00016000
                      1759.00000000          -0.00126300
                       400.80000000          -0.00626700
                       113.70000000          -0.02571600
                        37.03000000          -0.07092400
                        13.27000000          -0.16541100
                         5.02500000          -0.11695500
                         1.01300000           0.55736800
    S   1 1.00
                         0.30230000           1.00000000
    P   3 1.00
                        17.70000000           0.04301800
                         3.85400000           0.22891300
                         1.04600000           0.50872800
    P   1 1.00
                         0.27530000           1.00000000
    D   1 1.00
                         1.18500000           1.00000000
    S   1 1.00
                         0.07896000           1.00000000
    P   1 1.00
                         0.06856000           1.00000000
    ****
    H   5
    S   3 1.00
                        13.01000000           0.01968500
                         1.96200000           0.13797700
                         0.44460000           0.47814800
    S   1 1.00
                         0.12200000           1.00000000
    P   1 1.00
                         0.72700000           1.00000000
    ****
    H   6
    S   3 1.00
                        13.01000000           0.01968500
                         1.96200000           0.13797700
                         0.44460000           0.47814800
    S   1 1.00
                         0.12200000           1.00000000
    P   1 1.00
                         0.72700000           1.00000000
    ****

  ==> Pre-Iterations <==

   -------------------------------------------------------
    Irrep   Nso     Nmo     Nalpha   Nbeta   Ndocc  Nsocc
   -------------------------------------------------------
     A         56      56       0       0       0       0
   -------------------------------------------------------
    Total      56      56       5       5       5       0
   -------------------------------------------------------

   => Loading Basis Set <=

    Role: BASIS
    Keyword: BASIS
    Name: JUN-CC-PVDZ
    atoms 1, 4     entry O          line   225 file /Users/loriab/linux/psihub/master/psi4/lib/basis/jun-cc-pvdz.gbs
    atoms 2-3, 5-6 entry H          line    35 file /Users/loriab/linux/psihub/master/psi4/lib/basis/jun-cc-pvdz.gbs

 OEINTS: Overlap, kinetic, potential, dipole, and quadrupole integrals
         stored in file 35.

  ==> Integral Setup <==

   => Loading Basis Set <=

    Role: BASIS
    Keyword: BASIS
    Name: JUN-CC-PVDZ
    atoms 1, 4     entry O          line   225 file /Users/loriab/linux/psihub/master/psi4/lib/basis/jun-cc-pvdz.gbs
    atoms 2-3, 5-6 entry H          line    35 file /Users/loriab/linux/psihub/master/psi4/lib/basis/jun-cc-pvdz.gbs

   => Loading Basis Set <=

    Role: JKFIT
    Keyword: DF_BASIS_SCF
    Name: 
    atoms 1, 4     entry O          line   257 file /Users/loriab/linux/psihub/master/psi4/lib/basis/jun-cc-pvdz-jkfit.gbs
    atoms 2-3, 5-6 entry H          line    69 file /Users/loriab/linux/psihub/master/psi4/lib/basis/jun-cc-pvdz-jkfit.gbs

  ==> DFJK: Density-Fitted J/K Matrices <==

    J tasked:                  Yes
    K tasked:                  Yes
    wK tasked:                  No
    OpenMP threads:              1
    Integrals threads:           1
    Memory (MB):               183
    Algorithm:                Core
    Integral Cache:           LOAD
    Schwarz Cutoff:          1E-12
    Fitting Condition:       1E-12

   => Auxiliary Basis Set <=

  -AO BASIS SET INFORMATION:
    Name                   = 
    Total number of shells = 90
    Number of primitives   = 90
    Number of AO           = 282
    Number of SO           = 250
    Maximum AM             = 3
    Spherical Harmonics    = TRUE

  -Contraction Scheme:
    Atom   Type   All Primitives // Shells:
   ------ ------ --------------------------
       1     O     11s 8p 6d 2f // 11s 8p 6d 2f 
       2     H     4s 3p 2d // 4s 3p 2d 
       3     H     4s 3p 2d // 4s 3p 2d 
       4     O     11s 8p 6d 2f // 11s 8p 6d 2f 
       5     H     4s 3p 2d // 4s 3p 2d 
       6     H     4s 3p 2d // 4s 3p 2d 

  ==> AO Basis Functions <==

    [  ]
    spherical
    ****
    O   1
    S   1 1.00
                      1517.86675060           1.00000000
    S   1 1.00
                       489.67952008           1.00000000
    S   1 1.00
                       176.72118665           1.00000000
    S   1 1.00
                        63.79223314           1.00000000
    S   1 1.00
                        25.36649913           1.00000000
    S   1 1.00
                         9.91354912           1.00000000
    S   1 1.00
                         4.46453066           1.00000000
    S   1 1.00
                         1.80177437           1.00000000
    S   1 1.00
                         0.80789711           1.00000000
    S   1 1.00
                         0.33864327           1.00000000
    P   1 1.00
                       120.16030921           1.00000000
    P   1 1.00
                        34.40962247           1.00000000
    P   1 1.00
                        12.58114861           1.00000000
    P   1 1.00
                         5.06638242           1.00000000
    P   1 1.00
                         2.03469271           1.00000000
    P   1 1.00
                         0.86092967           1.00000000
    P   1 1.00
                         0.36681357           1.00000000
    D   1 1.00
                        19.04306281           1.00000000
    D   1 1.00
                         5.80603811           1.00000000
    D   1 1.00
                         2.18918416           1.00000000
    D   1 1.00
                         0.87794614           1.00000000
    D   1 1.00
                         0.35623647           1.00000000
    F   1 1.00
                         2.49391479           1.00000000
    F   1 1.00
                         0.82491479           1.00000000
    S   1 1.00
                         0.14194786           1.00000000
    P   1 1.00
                         0.15628709           1.00000000
    D   1 1.00
                         0.14454693           1.00000000
    ****
    H   2
    S   1 1.00
                         9.53024933           1.00000000
    S   1 1.00
                         1.91745062           1.00000000
    S   1 1.00
                         0.68424049           1.00000000
    S   1 1.00
                         0.28413256           1.00000000
    P   1 1.00
                         2.91332320           1.00000000
    P   1 1.00
                         1.26212054           1.00000000
    P   1 1.00
                         0.50199776           1.00000000
    D   1 1.00
                         2.31353291           1.00000000
    D   1 1.00
                         0.71290724           1.00000000
    ****
    H   3
    S   1 1.00
                         9.53024933           1.00000000
    S   1 1.00
                         1.91745062           1.00000000
    S   1 1.00
                         0.68424049           1.00000000
    S   1 1.00
                         0.28413256           1.00000000
    P   1 1.00
                         2.91332320           1.00000000
    P   1 1.00
                         1.26212054           1.00000000
    P   1 1.00
                         0.50199776           1.00000000
    D   1 1.00
                         2.31353291           1.00000000
    D   1 1.00
                         0.71290724           1.00000000
    ****
    O   4
    S   1 1.00
                      1517.86675060           1.00000000
    S   1 1.00
                       489.67952008           1.00000000
    S   1 1.00
                       176.72118665           1.00000000
    S   1 1.00
                        63.79223314           1.00000000
    S   1 1.00
                        25.36649913           1.00000000
    S   1 1.00
                         9.91354912           1.00000000
    S   1 1.00
                         4.46453066           1.00000000
    S   1 1.00
                         1.80177437           1.00000000
    S   1 1.00
                         0.80789711           1.00000000
    S   1 1.00
                         0.33864327           1.00000000
    P   1 1.00
                       120.16030921           1.00000000
    P   1 1.00
[...]
   ------ ------ --------------------------
       1     O     8s 6p 5d 3f // 8s 6p 5d 3f 
       2     H     4s 3p 2d // 4s 3p 2d 
       3     H     4s 3p 2d // 4s 3p 2d 
       4     O     8s 6p 5d 3f // 8s 6p 5d 3f 
       5     H     4s 3p 2d // 4s 3p 2d 
       6     H     4s 3p 2d // 4s 3p 2d 

  ==> AO Basis Functions <==

    [  ]
    spherical
    ****
    O   1
    S   1 1.00
                       109.46100000           1.00000000
    S   1 1.00
                        25.57800000           1.00000000
    S   1 1.00
                         9.55148000           1.00000000
    S   1 1.00
                         2.93960000           1.00000000
    S   1 1.00
                         1.39638000           1.00000000
    S   1 1.00
                         0.90506100           1.00000000
    S   1 1.00
                         0.42137600           1.00000000
    P   1 1.00
                        36.12920000           1.00000000
    P   1 1.00
                        10.88170000           1.00000000
    P   1 1.00
                         3.20594000           1.00000000
    P   1 1.00
                         1.40387000           1.00000000
    P   1 1.00
                         0.61276300           1.00000000
    D   1 1.00
                        15.25110000           1.00000000
    D   1 1.00
                         4.52087000           1.00000000
    D   1 1.00
                         1.81221000           1.00000000
    D   1 1.00
                         0.59220100           1.00000000
    F   1 1.00
                         4.22194000           1.00000000
    F   1 1.00
                         1.79021000           1.00000000
    S   1 1.00
                         0.12179209           1.00000000
    P   1 1.00
                         0.21144297           1.00000000
    D   1 1.00
                         0.16644794           1.00000000
    F   1 1.00
                         0.58460963           1.00000000
    ****
    H   2
    S   1 1.00
                         5.11588952           1.00000000
    S   1 1.00
                         1.14296528           1.00000000
    S   1 1.00
                         0.29166153           1.00000000
    P   1 1.00
                         1.91496403           1.00000000
    P   1 1.00
                         0.98640124           1.00000000
    D   1 1.00
                         1.17208347           1.00000000
    S   1 1.00
                         0.11272018           1.00000000
    P   1 1.00
                         0.28586022           1.00000000
    D   1 1.00
                         0.30382076           1.00000000
    ****
    H   3
    S   1 1.00
                         5.11588952           1.00000000
    S   1 1.00
                         1.14296528           1.00000000
    S   1 1.00
                         0.29166153           1.00000000
    P   1 1.00
                         1.91496403           1.00000000
    P   1 1.00
                         0.98640124           1.00000000
    D   1 1.00
                         1.17208347           1.00000000
    S   1 1.00
                         0.11272018           1.00000000
    P   1 1.00
                         0.28586022           1.00000000
    D   1 1.00
                         0.30382076           1.00000000
    ****
    O   4
    S   1 1.00
                       109.46100000           1.00000000
    S   1 1.00
                        25.57800000           1.00000000
    S   1 1.00
                         9.55148000           1.00000000
    S   1 1.00
                         2.93960000           1.00000000
    S   1 1.00
                         1.39638000           1.00000000
    S   1 1.00
                         0.90506100           1.00000000
    S   1 1.00
                         0.42137600           1.00000000
    P   1 1.00
                        36.12920000           1.00000000
    P   1 1.00
                        10.88170000           1.00000000
    P   1 1.00
                         3.20594000           1.00000000
    P   1 1.00
                         1.40387000           1.00000000
    P   1 1.00
                         0.61276300           1.00000000
    D   1 1.00
                        15.25110000           1.00000000
    D   1 1.00
                         4.52087000           1.00000000
    D   1 1.00
                         1.81221000           1.00000000
    D   1 1.00
                         0.59220100           1.00000000
    F   1 1.00
                         4.22194000           1.00000000
    F   1 1.00
                         1.79021000           1.00000000
    S   1 1.00
                         0.12179209           1.00000000
    P   1 1.00
                         0.21144297           1.00000000
    D   1 1.00
                         0.16644794           1.00000000
    F   1 1.00
                         0.58460963           1.00000000
    ****
    H   5
    S   1 1.00
                         5.11588952           1.00000000
    S   1 1.00
                         1.14296528           1.00000000
    S   1 1.00
                         0.29166153           1.00000000
    P   1 1.00
                         1.91496403           1.00000000
    P   1 1.00
                         0.98640124           1.00000000
    D   1 1.00
                         1.17208347           1.00000000
    S   1 1.00
                         0.11272018           1.00000000
    P   1 1.00
                         0.28586022           1.00000000
    D   1 1.00
                         0.30382076           1.00000000
    ****
    H   6
    S   1 1.00
                         5.11588952           1.00000000
    S   1 1.00
                         1.14296528           1.00000000
    S   1 1.00
                         0.29166153           1.00000000
    P   1 1.00
                         1.91496403           1.00000000
    P   1 1.00
                         0.98640124           1.00000000
    D   1 1.00
                         1.17208347           1.00000000
    S   1 1.00
                         0.11272018           1.00000000
    P   1 1.00
                         0.28586022           1.00000000
    D   1 1.00
                         0.30382076           1.00000000
    ****

	 --------------------------------------------------------
	                 NBF =    82, NAUX =   236
	 --------------------------------------------------------
	   CLASS    FOCC     OCC    AOCC    AVIR     VIR    FVIR
	   PAIRS       1       5       4      77      77       0
	 --------------------------------------------------------

	 Will attempt to load fitting metric from file 97.

	----------------------------------------------------------
	 ==================> DF-MP2 Energies <=================== 
	----------------------------------------------------------
	 Reference Energy          =     -76.0416229749169617 [H]
	 Singles Energy            =      -0.0000000000000548 [H]
	 Same-Spin Energy          =      -0.0560001172433252 [H]
	 Opposite-Spin Energy      =      -0.1640937796252849 [H]
	 Correlation Energy        =      -0.2200938968686650 [H]
	 Total Energy              =     -76.2617168717856231 [H]
	----------------------------------------------------------
	 ================> DF-SCS-MP2 Energies <================= 
	----------------------------------------------------------
	 SCS Same-Spin Scale       =       0.3333333333333333 [-]
	 SCS Opposite-Spin Scale   =       1.2000000000000000 [-]
	 SCS Same-Spin Energy      =      -0.0186667057477751 [H]
	 SCS Opposite-Spin Energy  =      -0.1969125355503419 [H]
	 SCS Correlation Energy    =      -0.2155792412981718 [H]
	 SCS Total Energy          =     -76.2572022162151342 [H]
	----------------------------------------------------------


*** tstop() called on ariadne at Fri Jan  8 01:36:24 2016
Module time:
	user time   =       0.33 seconds =       0.01 minutes
	system time =       0.02 seconds =       0.00 minutes
	total time  =          0 seconds =       0.00 minutes
Total time:
	user time   =       4.87 seconds =       0.08 minutes
	system time =       0.34 seconds =       0.01 minutes
	total time  =          5 seconds =       0.08 minutes

  //>>>>>>>>>>>>>>>>>>>>>>>>>>>>>>>>>>>//
  //          SAPT2+3(CCD)DMP2         //
  //<<<<<<<<<<<<<<<<<<<<<<<<<<<<<<<<<<<//


*** tstart() called on ariadne
*** at Fri Jan  8 01:36:24 2016

   => Loading Basis Set <=

    Role: BASIS
    Keyword: BASIS
    Name: AUG-CC-PVDZ
    atoms 1, 4     entry O          line   243 file /Users/loriab/linux/psihub/master/psi4/lib/basis/aug-cc-pvdz.gbs
    atoms 2-3, 5-6 entry H          line    35 file /Users/loriab/linux/psihub/master/psi4/lib/basis/aug-cc-pvdz.gbs

   => Loading Basis Set <=

    Role: RIFIT
    Keyword: DF_BASIS_SAPT
    Name: 
    atoms 1, 4     entry O          line   203 file /Users/loriab/linux/psihub/master/psi4/lib/basis/aug-cc-pvdz-ri.gbs
    atoms 2-3, 5-6 entry H          line    29 file /Users/loriab/linux/psihub/master/psi4/lib/basis/aug-cc-pvdz-ri.gbs

       SAPT2+3   
    CCD+(ST) Disp   
    Ed Hohenstein
     6 June 2009

      Orbital Information
  --------------------------
    NSO        =        82
    NMO        =        82
    NRI        =       236
    NOCC A     =         5
    NOCC B     =         5
    FOCC A     =         1
    FOCC B     =         1
    NVIR A     =        77
    NVIR B     =        77

    Estimated memory usage: 14.8 MB

    Natural Orbital Cutoff:   1.000E-06
    Disp(T3) Truncation:            Yes
    CCD (vv|vv) Truncation:         Yes
    MBPT T2 Truncation:             Yes

    Monomer A: 41 virtual orbitals dropped
    Monomer B: 38 virtual orbitals dropped

    Elst10,r            =    -0.013375430582 H
    Exch10 (S^2)        =     0.011138030963 H
    Exch10              =     0.011218226883 H
    Ind20,r (A<-B)      =    -0.001439573298 H
    Ind20,r (B<-A)      =    -0.003135737453 H
    Ind20,r             =    -0.004575310750 H
    Exch-Ind20,r (A<-B) =     0.000948668761 H
    Exch-Ind20,r (B<-A) =     0.001529618772 H
    Exch-Ind20,r        =     0.002478287533 H
    Disp20              =    -0.003542919935 H
    Disp20 (NO)         =    -0.003106924626 H
    Exch-Disp20         =     0.000645456217 H
    Elst12,r            =     0.000044903558 H
    Exch11              =     0.000045589063 H
    Exch12              =     0.002153870338 H
    Ind22               =    -0.000837186949 H
    Disp21              =     0.000112161797 H
    Disp22 (SDQ)        =    -0.000178921689 H

    (i =   1 of   4)          0 seconds
    (i =   2 of   4)          0 seconds
    (i =   3 of   4)          0 seconds
    (i =   4 of   4)          0 seconds

    Disp220 (T)         =    -0.000245133476 H

    (i =   1 of   4)          0 seconds
    (i =   2 of   4)          0 seconds
    (i =   3 of   4)          0 seconds
    (i =   4 of   4)          1 seconds

    Disp202 (T)         =    -0.000231791957 H

    Disp22 (T)          =    -0.000476925432 H

    Est. Disp220 (T)    =    -0.000279533102 H
    Est. Disp202 (T)    =    -0.000264319365 H

    Est. Disp22 (T)     =    -0.000543852467 H

==> CCD Dispersion <==

Beginning Monomer A CCD

Iter       Energy (H)          dE (H)             RMS (H)
   1      -0.21994892       0.219948916       0.000000000
   2      -0.22224576       0.002296845       0.000082634
   3      -0.22545157       0.003205813       0.000027763
   4      -0.22604484       0.000593263       0.000009789
   5      -0.22628161       0.000236772       0.000004091  DIIS
   6      -0.22641551       0.000133901       0.000001726  DIIS
   7      -0.22641660       0.000001085       0.000000091  DIIS
   8      -0.22641740       0.000000808       0.000000018  DIIS
   9      -0.22641746       0.000000058       0.000000004  DIIS
  10      -0.22641742      -0.000000041       0.000000001  DIIS
  11      -0.22641742      -0.000000001       0.000000000  DIIS

Beginning Monomer B CCD

Iter       Energy (H)          dE (H)             RMS (H)
   1      -0.22009390       0.220093897       0.000000000
   2      -0.22241271       0.002318811       0.000082476
   3      -0.22561044       0.003197734       0.000027695
   4      -0.22619932       0.000588878       0.000009757
   5      -0.22643503       0.000235713       0.000004076  DIIS
   6      -0.22656757       0.000132538       0.000001718  DIIS
   7      -0.22656880       0.000001232       0.000000093  DIIS
   8      -0.22656959       0.000000790       0.000000018  DIIS
   9      -0.22656964       0.000000049       0.000000004  DIIS
  10      -0.22656960      -0.000000036       0.000000001  DIIS
  11      -0.22656960      -0.000000000       0.000000000  DIIS

Beginning CCD Dispersion Amplitude Formation

Iter      Energy (mH)         dE (mH)            RMS (mH)
   1      -3.12123942       3.121239421       0.000000000
   2      -3.62346521       0.502225791       0.038435007
   3      -3.72202468       0.098559467       0.008979622
   4      -3.74337825       0.021353572       0.002340886
   5      -3.74836829       0.004990039       0.000656090  DIIS
   6      -3.75004036       0.001672070       0.000193491  DIIS
   7      -3.75004109       0.000000729       0.000001769  DIIS
   8      -3.75004100      -0.000000090       0.000000223  DIIS
   9      -3.75004100       0.000000001       0.000000028  DIIS
  10      -3.75004100       0.000000000       0.000000004  DIIS

Beginning Intramonomer A CCD Dispersion

Iter      Energy (mH)         dE (mH)            RMS (mH)
   1       0.24126665      -0.241266648       0.000000000
   2       0.25424215      -0.012975502       0.000646050
   3       0.26204899      -0.007806836       0.000220542
   4       0.26417605      -0.002127061       0.000080105
   5       0.26505476      -0.000878711       0.000030927  DIIS
   6       0.26559027      -0.000535514       0.000012114  DIIS
   7       0.26559789      -0.000007621       0.000000462  DIIS
   8       0.26559896      -0.000001063       0.000000095  DIIS
   9       0.26559980      -0.000000841       0.000000025  DIIS
  10       0.26559995      -0.000000150       0.000000006  DIIS
  11       0.26559995      -0.000000005       0.000000002  DIIS

Beginning Intramonomer B CCD Dispersion

Iter      Energy (mH)         dE (mH)            RMS (mH)
   1       0.24661106      -0.246611059       0.000000000
   2       0.24531610       0.001294955       0.000397279
   3       0.24942463      -0.004108528       0.000098699
   4       0.24995875      -0.000534115       0.000027449
   5       0.25023523      -0.000276479       0.000008942  DIIS
   6       0.25036065      -0.000125420       0.000003064  DIIS
   7       0.25037046      -0.000009817       0.000000252  DIIS
   8       0.25037083      -0.000000369       0.000000054  DIIS
   9       0.25037123      -0.000000398       0.000000015  DIIS
  10       0.25037133      -0.000000100       0.000000003  DIIS
  11       0.25037133      -0.000000001       0.000000001  DIIS

    Disp2 (CCD)         =    -0.003234069716 H

    Disp220 (S)         =    -0.153235593744 mH
    Disp202 (S)         =    -0.153036388474 mH
    Disp22 (S)          =    -0.306271982218 mH


    (i =   1 of   4)          0 seconds
    (i =   2 of   4)          0 seconds
    (i =   3 of   4)          0 seconds
    (i =   4 of   4)          0 seconds

    Disp220 (T)         =    -0.000260812428 H

    (i =   1 of   4)          0 seconds
    (i =   2 of   4)          0 seconds
    (i =   3 of   4)          0 seconds
    (i =   4 of   4)          0 seconds

    Disp202 (T)         =    -0.000244974797 H

    Disp22 (T)          =    -0.000505787225 H

    Est. Disp220 (T)    =    -0.000297412284 H
    Est. Disp202 (T)    =    -0.000279352156 H

    Est. Disp22 (T)     =    -0.000576764440 H
    Elst13,r            =     0.000265435127 H
    Disp30              =     0.000059599797 H
    Exch-Disp30         =    -0.000018234094 H
    Ind30               =    -0.003500175808 H
    Ind30,r             =    -0.004917152652 H
    Exch-Ind30          =     0.003088747853 H
    Ind-Disp30          =    -0.000918169565 H
    Exch-Ind-Disp30     =     0.000764872510 H

    SAPT Results  
  --------------------------------------------------------------------------
    Electrostatics            -13.06509190 mH      -8.19846928 kcal mol^-1
      Elst10,r                -13.37543058 mH      -8.39320976 kcal mol^-1
      Elst12,r                  0.04490356 mH       0.02817741 kcal mol^-1
      Elst13,r                  0.26543513 mH       0.16656306 kcal mol^-1

    Exchange                   13.41768628 mH       8.41972561 kcal mol^-1
      Exch10                   11.21822688 mH       7.03954394 kcal mol^-1
      Exch10(S^2)              11.13803096 mH       6.98922024 kcal mol^-1
      Exch11(S^2)               0.04558906 mH       0.02860757 kcal mol^-1
      Exch12(S^2)               2.15387034 mH       1.35157410 kcal mol^-1

    Induction                  -3.91313367 mH      -2.45552855 kcal mol^-1
      Ind20,r                  -4.57531075 mH      -2.87105096 kcal mol^-1
      Ind30,r                  -4.91715265 mH      -3.08556000 kcal mol^-1
      Ind22                    -0.83718695 mH      -0.52534276 kcal mol^-1
      Exch-Ind20,r              2.47828753 mH       1.55514897 kcal mol^-1
      Exch-Ind30,r              4.33916624 mH       2.72286804 kcal mol^-1
      Exch-Ind22                0.45347520 mH       0.28456000 kcal mol^-1
      delta HF,r (2)           -1.43239871 mH      -0.89884380 kcal mol^-1
      delta HF,r (3)           -0.85441229 mH      -0.53615183 kcal mol^-1

    Dispersion                 -3.58358127 mH      -2.24873129 kcal mol^-1
      Disp20                   -3.54291994 mH      -2.22321592 kcal mol^-1
      Disp30                    0.05959980 mH       0.03739944 kcal mol^-1
      Disp21                    0.11216180 mH       0.07038259 kcal mol^-1
      Disp22 (SDQ)             -0.17892169 mH      -0.11227506 kcal mol^-1
      Disp22 (T)               -0.47692543 mH      -0.29927524 kcal mol^-1
      Est. Disp22 (T)          -0.54385247 mH      -0.34127259 kcal mol^-1
      Disp2 (CCD)              -3.23406972 mH      -2.02940947 kcal mol^-1
      Disp22 (S) (CCD)         -0.30627198 mH      -0.19218858 kcal mol^-1
      Disp22 (T) (CCD)         -0.50578722 mH      -0.31738629 kcal mol^-1
      Est. Disp22 (T) (CCD)    -0.57676444 mH      -0.36192517 kcal mol^-1
      Exch-Disp20               0.64545622 mH       0.40502991 kcal mol^-1
      Exch-Disp30              -0.01823409 mH      -0.01144207 kcal mol^-1
      Ind-Disp30               -0.91816957 mH      -0.57616012 kcal mol^-1
      Exch-Ind-Disp30           0.76487251 mH       0.47996477 kcal mol^-1

    Total HF                   -5.68662562 mH      -3.56841160 kcal mol^-1
    Total SAPT0                -8.58408934 mH      -5.38659761 kcal mol^-1
    Total SAPT2                -6.72343813 mH      -4.21902130 kcal mol^-1
    Total SAPT2+               -7.33405049 mH      -4.60218635 kcal mol^-1
    Total SAPT2+(3)            -7.00901556 mH      -4.39822385 kcal mol^-1
    Total SAPT2+3              -7.18054671 mH      -4.50586128 kcal mol^-1
    Total SAPT2+(CCD)          -7.29762433 mH      -4.57932859 kcal mol^-1
    Total SAPT2+(3)(CCD)       -6.97258941 mH      -4.37536609 kcal mol^-1
    Total SAPT2+3(CCD)         -7.14412056 mH      -4.48300352 kcal mol^-1

*** tstop() called on ariadne at Fri Jan  8 01:36:28 2016
Module time:
	user time   =       5.49 seconds =       0.09 minutes
	system time =       1.03 seconds =       0.02 minutes
	total time  =          4 seconds =       0.07 minutes
Total time:
	user time   =      10.36 seconds =       0.17 minutes
	system time =       1.37 seconds =       0.02 minutes
	total time  =          9 seconds =       0.15 minutes


  Variable Map:
  ----------------------------------------------------------------------------
(null)


*** PSI4 exiting successfully. Buy a developer a beer!
