
    -----------------------------------------------------------------------
          Psi4: An Open-Source Ab Initio Electronic Structure Package
                               Psi4 undefined 

                         Git: Rev {cctest} b401a9d dirty


    D. G. A. Smith, L. A. Burns, A. C. Simmonett, R. M. Parrish,
    M. C. Schieber, R. Galvelis, P. Kraus, H. Kruse, R. Di Remigio,
    A. Alenaizan, A. M. James, S. Lehtola, J. P. Misiewicz, M. Scheurer,
    R. A. Shaw, J. B. Schriber, Y. Xie, Z. L. Glick, D. A. Sirianni,
    J. S. O'Brien, J. M. Waldrop, A. Kumar, E. G. Hohenstein,
    B. P. Pritchard, B. R. Brooks, H. F. Schaefer III, A. Yu. Sokolov,
    K. Patkowski, A. E. DePrince III, U. Bozkaya, R. A. King,
    F. A. Evangelista, J. M. Turney, T. D. Crawford, C. D. Sherrill,
    J. Chem. Phys. 152(18) 184108 (2020). https://doi.org/10.1063/5.0006002

                            Additional Code Authors
    E. T. Seidl, C. L. Janssen, E. F. Valeev, M. L. Leininger,
    J. F. Gonthier, R. M. Richard, H. R. McAlexander, M. Saitow, X. Wang,
    P. Verma, M. H. Lechner, and A. Jiang

             Previous Authors, Complete List of Code Contributors,
                       and Citations for Specific Modules
    https://github.com/psi4/psi4/blob/master/codemeta.json
    https://github.com/psi4/psi4/graphs/contributors
    http://psicode.org/psi4manual/master/introduction.html#citing-psifour

    -----------------------------------------------------------------------


    Psi4 started on: Friday, 18 February 2022 02:08PM

    Process ID: 64299
    Host:       dhcp189-242.emerson.emory.edu
    PSIDATADIR: /Users/jonathonmisiewicz/psi4/objdir/stage/share/psi4
    Memory:     500.0 MiB
    Threads:    1
    
  ==> Input File <==

--------------------------------------------------------------------------
#! CCSD/cc-pVDZ optical rotation calculation (both gauges) on Cartesian H2O2

molecule h2o2 {
 O     -0.028962160801    -0.694396279686    -0.049338350190
 O      0.028962160801     0.694396279686    -0.049338350190
 H      0.350498145881    -0.910645626300     0.783035421467
 H     -0.350498145881     0.910645626300     0.783035421467
noreorient
}

set {
  gauge both
  freeze_core true
  omega [589, 355, nm]
  basis cc-pVDZ
  r_convergence 10
}

wfn = properties('ccsd',properties=['rotation'], return_wfn=True)[1]

reflen_589   =    -76.93388  #TEST
refvel_589   =    850.24712  #TEST
refmvg_589   =   -179.08820  #TEST
reflen_355   =   -214.73273  #TEST
refvel_355   =    384.88786  #TEST
refmvg_355   =   -644.44746  #TEST

compare_values(reflen_589,   variable("CCSD SPECIFIC ROTATION (LEN) @ 589NM"),  3, "CCSD rotation @ 589nm in length gauge") #TEST
compare_values(refvel_589,   variable("CCSD SPECIFIC ROTATION (VEL) @ 589NM"),  3, "CCSD rotation @ 589nm in velocity gauge") #TEST
compare_values(refmvg_589,   variable("CCSD SPECIFIC ROTATION (MVG) @ 589NM"),  3, "CCSD rotation @ 589nm in modified velocity gauge") #TEST
compare_values(reflen_355,   variable("CCSD SPECIFIC ROTATION (LEN) @ 355NM"),  3, "CCSD rotation @ 355nm in length gauge") #TEST
compare_values(refvel_355,   variable("CCSD SPECIFIC ROTATION (VEL) @ 355NM"),  3, "CCSD rotation @ 355nm in velocity gauge") #TEST
compare_values(refmvg_355,   variable("CCSD SPECIFIC ROTATION (MVG) @ 355NM"),  3, "CCSD rotation @ 355nm in modified velocity gauge") #TEST

reflenT_589 = psi4.core.Matrix.from_list(        # TEST
   [[0.141679367454342, -0.070714074525053, 0],  # TEST
    [-0.272710108679977, 0.001289284927192, 0],  # TEST
    [0, 0, -0.127276914384744]])                 # TEST
refvelT_589 = psi4.core.Matrix.from_list(        # TEST
   [[0.375624002172128, -0.374245931079431, 0],  # TEST
    [-0.139409386151793, 0.012686792954725, 0],  # TEST
    [0, 0, -0.401726050127889]])                 # TEST
refmvgT_589 = psi4.core.Matrix.from_list(        # TEST
   [[0.011921207729849, -0.011491041277978, 0],  # TEST
    [-0.023088462037097, 0.000608303898894, 0],  # TEST
    [0, 0, -0.009703846161106]])                 # TEST
reflenT_355 = psi4.core.Matrix.from_list(        # TEST
   [[0.247980570429615, -0.130332715357560, 0],  # TEST
    [-0.485840586780009, -0.000172988287553, 0], # TEST
    [0, 0, -0.221409966802105]])                 # TEST
refvelT_355 = psi4.core.Matrix.from_list(        # TEST
   [[0.399349644680690, -0.398490098672511, 0],  # TEST
    [-0.184609678704297, 0.013642793674983, 0],  # TEST
    [0, 0, -0.419065224393867]])                 # TEST
refmvgT_355 = psi4.core.Matrix.from_list(        # TEST
   [[0.035646850238411, -0.035735208871057, 0],  # TEST
    [-0.068288754589601, 0.001564304619152, 0],  # TEST
    [0, 0, -0.027043020427084]])                 # TEST

compare_values(reflenT_589,   wfn.variable("CCSD OPTICAL ROTATION TENSOR (LEN) @ 589NM"),  3, "CCSD rotation tensor @ 589nm in length gauge") #TEST
compare_values(reflenT_589,   wfn.variable("CCSD OPTICAL ROTATION TENSOR (LEN) @ 589NM"),  3, "CCSD rotation tensor @ 589nm in length gauge") #TEST
compare_values(reflenT_589,   wfn.variable("CCSD OPTICAL ROTATION TENSOR (LEN) @ 589NM"),  3, "CCSD rotation tensor @ 589nm in length gauge") #TEST
compare_values(reflenT_589,   wfn.variable("CCSD OPTICAL ROTATION TENSOR (LEN) @ 589NM"),  3, "CCSD rotation tensor @ 589nm in length gauge") #TEST
compare_values(reflenT_589,   wfn.variable("CCSD OPTICAL ROTATION TENSOR (LEN) @ 589NM"),  3, "CCSD rotation tensor @ 589nm in length gauge") #TEST
compare_values(reflenT_589,   wfn.variable("CCSD OPTICAL ROTATION TENSOR (LEN) @ 589NM"),  3, "CCSD rotation tensor @ 589nm in length gauge") #TEST

--------------------------------------------------------------------------

*** tstart() called on dhcp189-242.emerson.emory.edu
*** at Fri Feb 18 14:08:10 2022

   => Loading Basis Set <=

    Name: CC-PVDZ
    Role: ORBITAL
    Keyword: BASIS
    atoms 1-2 entry O          line   198 file /Users/jonathonmisiewicz/psi4/objdir/stage/share/psi4/basis/cc-pvdz.gbs 
    atoms 3-4 entry H          line    22 file /Users/jonathonmisiewicz/psi4/objdir/stage/share/psi4/basis/cc-pvdz.gbs 


         ---------------------------------------------------------
                                   SCF
               by Justin Turney, Rob Parrish, Andy Simmonett
                          and Daniel G. A. Smith
                              RHF Reference
                        1 Threads,    500 MiB Core
         ---------------------------------------------------------

  ==> Geometry <==

    Molecular point group: c2
    Full point group: C2

    Geometry (in Angstrom), charge = 0, multiplicity = 1:

       Center              X                  Y                   Z               Mass       
    ------------   -----------------  -----------------  -----------------  -----------------
         O           -0.028962160801    -0.694396279686    -0.049338350197    15.994914619570
         O            0.028962160801     0.694396279686    -0.049338350197    15.994914619570
         H            0.350498145881    -0.910645626300     0.783035421460     1.007825032230
         H           -0.350498145881     0.910645626300     0.783035421460     1.007825032230

  Running in c2 symmetry.

  Rotational constants: A =     10.61423  B =      0.97044  C =      0.91566 [cm^-1]
  Rotational constants: A = 318206.57700  B =  29093.19760  C =  27450.82465 [MHz]
  Nuclear repulsion =   38.253968531037714

  Charge       = 0
  Multiplicity = 1
  Electrons    = 18
  Nalpha       = 9
  Nbeta        = 9

  ==> Algorithm <==

  SCF Algorithm Type is PK.
  DIIS enabled.
  MOM disabled.
  Fractional occupation disabled.
  Guess Type is SAD.
  Energy threshold   = 1.00e-10
  Density threshold  = 1.00e-10
  Integral threshold = 1.00e-12

  ==> Primary Basis <==

  Basis Set: CC-PVDZ
    Blend: CC-PVDZ
    Number of shells: 18
    Number of basis functions: 38
    Number of Cartesian functions: 40
    Spherical Harmonics?: true
    Max angular momentum: 2

  ==> Integral Setup <==

  Using in-core PK algorithm.
   Calculation information:
      Number of atoms:                   4
      Number of AO shells:              18
      Number of primitives:             54
      Number of atomic orbitals:        40
      Number of basis functions:        38

      Integral cutoff                 1.00e-12
      Number of threads:                 1

  Performing in-core PK
  Using 549822 doubles for integral storage.
  We computed 14706 shell quartets total.
  Whereas there are 14706 unique shell quartets.

  ==> DiskJK: Disk-Based J/K Matrices <==

    J tasked:                  Yes
    K tasked:                  Yes
    wK tasked:                  No
    Memory [MiB]:              375
    Schwarz Cutoff:          1E-12

    OpenMP threads:              1

  Minimum eigenvalue in the overlap matrix is 3.0969235309E-02.
  Reciprocal condition number of the overlap matrix is 8.7476056510E-03.
    Using symmetric orthogonalization.

  ==> Pre-Iterations <==

  SCF Guess: Superposition of Atomic Densities via on-the-fly atomic UHF (no occupation information).

   -------------------------
    Irrep   Nso     Nmo    
   -------------------------
     A         19      19 
     B         19      19 
   -------------------------
    Total      38      38
   -------------------------

  ==> Iterations <==

                        Total Energy        Delta E     RMS |[F,P]|

   @RHF iter SAD:  -150.13109142561967   -1.50131e+02   0.00000e+00 
   @RHF iter   1:  -150.72994418505715   -5.98853e-01   1.20798e-02 DIIS/ADIIS
   @RHF iter   2:  -150.77474437542577   -4.48002e-02   3.93712e-03 DIIS/ADIIS
   @RHF iter   3:  -150.77872862263564   -3.98425e-03   9.99210e-04 DIIS/ADIIS
   @RHF iter   4:  -150.77914039140413   -4.11769e-04   2.79341e-04 DIIS/ADIIS
   @RHF iter   5:  -150.77918120837077   -4.08170e-05   4.89524e-05 DIIS
   @RHF iter   6:  -150.77918362626531   -2.41789e-06   1.25560e-05 DIIS
   @RHF iter   7:  -150.77918384927912   -2.23014e-07   3.89300e-06 DIIS
   @RHF iter   8:  -150.77918387131734   -2.20382e-08   8.16055e-07 DIIS
   @RHF iter   9:  -150.77918387210687   -7.89527e-10   1.49865e-07 DIIS
   @RHF iter  10:  -150.77918387212901   -2.21405e-11   3.10868e-08 DIIS
   @RHF iter  11:  -150.77918387213020   -1.19371e-12   6.61624e-09 DIIS
   @RHF iter  12:  -150.77918387213020    0.00000e+00   1.38474e-09 DIIS
   @RHF iter  13:  -150.77918387213043   -2.27374e-13   3.05202e-10 DIIS
   @RHF iter  14:  -150.77918387213020    2.27374e-13   6.31849e-11 DIIS
  Energy and wave function converged.


  ==> Post-Iterations <==

    Orbital Energies [Eh]
    ---------------------

    Doubly Occupied:                                                      

       1A    -20.619349     1B    -20.619013     2A     -1.507787  
       2B     -1.207608     3A     -0.772079     3B     -0.669170  
       4A     -0.610850     4B     -0.534579     5A     -0.457771  

    Virtual:                                                              

       6A      0.170058     5B      0.207922     6B      0.357579  
       7A      0.826680     7B      0.851681     8A      1.130818  
       8B      1.137986     9B      1.173859     9A      1.187142  
      10A      1.286565    10B      1.298497    11A      1.497098  
      12A      1.540883    11B      1.559287    12B      1.733951  
      13A      1.913157    13B      2.037507    14A      2.460009  
      14B      2.503912    15B      2.672803    15A      2.821554  
      16A      2.932536    17A      3.274207    16B      3.309357  
      18A      3.503492    17B      3.609638    18B      3.917634  
      19A      4.000575    19B      4.287100  

    Final Occupation by Irrep:
              A     B 
    DOCC [     5,    4 ]

  @RHF Final Energy:  -150.77918387213020

   => Energetics <=

    Nuclear Repulsion Energy =             38.2539685310377138
    One-Electron Energy =                -284.0698924306669255
    Two-Electron Energy =                  95.0367400274990075
    Total Energy =                       -150.7791838721302042

Computation Completed


Properties will be evaluated at   0.000000,   0.000000,   0.000000 [a0]

Properties computed using the SCF density matrix

  Nuclear Dipole Moment: [e a0]
     X:     0.0000      Y:     0.0000      Z:     1.4677

  Electronic Dipole Moment: [e a0]
     X:     0.0000      Y:     0.0000      Z:    -0.2602

  Dipole Moment: [e a0]
     X:     0.0000      Y:     0.0000      Z:     1.2074     Total:     1.2074

  Dipole Moment: [D]
     X:     0.0000      Y:     0.0000      Z:     3.0690     Total:     3.0690


*** tstop() called on dhcp189-242.emerson.emory.edu at Fri Feb 18 14:08:11 2022
Module time:
	user time   =       0.66 seconds =       0.01 minutes
	system time =       0.10 seconds =       0.00 minutes
	total time  =          1 seconds =       0.02 minutes
Total time:
	user time   =       0.66 seconds =       0.01 minutes
	system time =       0.10 seconds =       0.00 minutes
	total time  =          1 seconds =       0.02 minutes
 MINTS: Wrapper to libmints.
   by Justin Turney

   Calculation information:
      Number of threads:                 1
      Number of atoms:                   4
      Number of AO shells:              18
      Number of SO shells:               9
      Number of primitives:             54
      Number of atomic orbitals:        40
      Number of basis functions:        38

      Number of irreps:                  2
      Integral cutoff                 1.00e-12
      Number of functions per irrep: [  19   19 ]

 OEINTS: Overlap, kinetic, potential, dipole, and quadrupole integrals
         stored in file 35.

      Computing two-electron integrals...done
      Computed 117739 non-zero two-electron integrals.
        Stored in file 33.


*** tstart() called on dhcp189-242.emerson.emory.edu
*** at Fri Feb 18 14:08:11 2022


	Wfn Parameters:
	--------------------
	Wavefunction         = CCSD
	Number of irreps     = 2
	Number of MOs        = 38
	Number of active MOs = 36
	AO-Basis             = NONE
	Semicanonical        = false
	Reference            = RHF
	Print Level          = 1

	IRREP	# MOs	# FZDC	# DOCC	# SOCC	# VIRT	# FZVR
	-----	-----	------	------	------	------	------
	 A	   19	    1	    4	    0	    14	    0
	 B	   19	    1	    3	    0	    15	    0
	Transforming integrals...
	IWL integrals will be deleted.
	(OO|OO)...
	Presorting SO-basis two-electron integrals.
	Sorting File: SO Ints (nn|nn) nbuckets = 1
	Constructing frozen core operators
	Starting first half-transformation.
	Sorting half-transformed integrals.
	First half integral transformation complete.
	Starting second half-transformation.
	Two-electron integral transformation complete.
	(OO|OV)...
	Starting second half-transformation.
	Two-electron integral transformation complete.
	(OO|VV)...
	Starting second half-transformation.
	Two-electron integral transformation complete.
	(OV|OO)...
	Starting first half-transformation.
	Sorting half-transformed integrals.
	First half integral transformation complete.
	Starting second half-transformation.
	Two-electron integral transformation complete.
	(OV|OV)...
	Starting second half-transformation.
	Two-electron integral transformation complete.
	(OV|VV)...
	Starting second half-transformation.
	Two-electron integral transformation complete.
	(VV|OO)...
	Starting first half-transformation.
	Sorting half-transformed integrals.
	First half integral transformation complete.
	Starting second half-transformation.
	Two-electron integral transformation complete.
	(VV|OV)...
	Starting second half-transformation.
	Two-electron integral transformation complete.
	(VV|VV)...
	Starting second half-transformation.
	Two-electron integral transformation complete.
	Frozen core energy     =   -132.27484829822646

	Size of irrep 0 of <ab|cd> integrals:      0.177 (MW) /      1.418 (MB)
	Size of irrep 1 of <ab|cd> integrals:      0.176 (MW) /      1.411 (MB)
	Total:                                     0.354 (MW) /      2.829 (MB)

	Size of irrep 0 of <ia|bc> integrals:      0.043 (MW) /      0.340 (MB)
	Size of irrep 1 of <ia|bc> integrals:      0.043 (MW) /      0.343 (MB)
	Total:                                     0.085 (MW) /      0.683 (MB)

	Size of irrep 0 of tijab amplitudes:       0.011 (MW) /      0.084 (MB)
	Size of irrep 1 of tijab amplitudes:       0.010 (MW) /      0.081 (MB)
	Total:                                     0.021 (MW) /      0.165 (MB)

	Nuclear Rep. energy          =     38.25396853103771
	SCF energy                   =   -150.77918387213020
	One-electron energy          =   -101.99691974242856
	Two-electron energy          =     45.23861563748702
	Reference energy             =   -150.77918387213029

*** tstop() called on dhcp189-242.emerson.emory.edu at Fri Feb 18 14:08:11 2022
Module time:
	user time   =       0.07 seconds =       0.00 minutes
	system time =       0.13 seconds =       0.00 minutes
	total time  =          0 seconds =       0.00 minutes
Total time:
	user time   =       0.81 seconds =       0.01 minutes
	system time =       0.25 seconds =       0.00 minutes
	total time  =          1 seconds =       0.02 minutes
            **************************
            *                        *
            *        CCENERGY        *
            *                        *
            **************************

    Nuclear Rep. energy (wfn)     =   38.253968531037714
    SCF energy          (wfn)     = -150.779183872130204
    Reference energy    (file100) = -150.779183872130290

    Input parameters:
    -----------------
    Wave function   =     CCSD
    Reference wfn   =     RHF
    Brueckner       =     No
    Memory (Mbytes) =     524.3
    Maxiter         =     50
    R_Convergence   =     1.0e-10
    E_Convergence   =     1.0e-08
    Restart         =     Yes
    DIIS            =     Yes
    AO Basis        =     NONE
    ABCD            =     NEW
    Cache Level     =     2
    Cache Type      =     LOW
    Print Level     =     1
    Num. of threads =     1
    # Amps to Print =     10
    Print MP2 Amps? =     No
    Analyze T2 Amps =     No
    Print Pair Ener =     No
    Local CC        =     No
    SCS-MP2         =     False
    SCSN-MP2        =     False
    SCS-CCSD        =     False

MP2 correlation energy -0.3802563047354497
                Solving CC Amplitude Equations
                ------------------------------
  Iter             Energy              RMS        T1Diag      D1Diag    New D1Diag    D2Diag
  ----     ---------------------    ---------   ----------  ----------  ----------   --------
     0        -0.380256304735450    0.000e+00    0.000000    0.000000    0.000000    0.143419
     1        -0.384252699668255    4.172e-02    0.006281    0.014957    0.014957    0.146642
     2        -0.393202764097162    1.580e-02    0.007156    0.016728    0.016728    0.156356
     3        -0.394603277393187    5.260e-03    0.008061    0.018516    0.018516    0.160181
     4        -0.394657649472716    1.398e-03    0.008198    0.018646    0.018646    0.161027
     5        -0.394690572111267    5.030e-04    0.008266    0.018685    0.018685    0.161216
     6        -0.394682676918534    1.898e-04    0.008293    0.018687    0.018687    0.161210
     7        -0.394679308421949    5.979e-05    0.008301    0.018685    0.018685    0.161200
     8        -0.394679268024016    2.095e-05    0.008303    0.018684    0.018684    0.161198
     9        -0.394678918998358    7.909e-06    0.008304    0.018684    0.018684    0.161197
    10        -0.394679205282363    3.344e-06    0.008304    0.018684    0.018684    0.161197
    11        -0.394679179930269    1.110e-06    0.008304    0.018684    0.018684    0.161197
    12        -0.394679217846268    3.658e-07    0.008304    0.018684    0.018684    0.161197
    13        -0.394679216147674    1.105e-07    0.008304    0.018684    0.018684    0.161197
    14        -0.394679216663093    3.761e-08    0.008304    0.018684    0.018684    0.161197
    15        -0.394679216911701    1.359e-08    0.008304    0.018684    0.018684    0.161197
    16        -0.394679216830315    4.980e-09    0.008304    0.018684    0.018684    0.161197
    17        -0.394679216820356    2.200e-09    0.008304    0.018684    0.018684    0.161197
    18        -0.394679216809511    8.813e-10    0.008304    0.018684    0.018684    0.161197
    19        -0.394679216812683    3.643e-10    0.008304    0.018684    0.018684    0.161197
    20        -0.394679216821198    1.280e-10    0.008304    0.018684    0.018684    0.161197
    21        -0.394679216820548    4.824e-11    0.008304    0.018684    0.018684    0.161197

    Iterations converged.


    Largest TIA Amplitudes:
              5  14        -0.0102219474
              6  14        -0.0088239766
              2   7        -0.0082621856
              2   9        -0.0079565233
              2   4         0.0077446889
              1   8        -0.0067312264
              1   0        -0.0066839225
              5  17         0.0064483639
              1   3         0.0061907938
              6  16         0.0061070746

    Largest TIjAb Amplitudes:
      2   2  15  15        -0.0682113878
      2   2  14  15         0.0337460405
      2   2  15  14         0.0337460405
      1   2  15  15         0.0313513390
      2   1  15  15         0.0313513390
      1   1  15  15        -0.0311200794
      3   3  17  17        -0.0224518728
      3   3  15  15        -0.0219509880
      1   1   1   1        -0.0213098148
      2   2  14  14        -0.0200419717

    SCF energy       (wfn)                    = -150.779183872130204
    Reference energy (file100)                = -150.779183872130290

    Opposite-spin MP2 correlation energy      =   -0.282698986958705
    Same-spin MP2 correlation energy          =   -0.097557317776745
    Singles MP2 correlation energy            =   -0.000000000000000
    MP2 correlation energy                    =   -0.380256304735450
      * MP2 total energy                      = -151.159440176865729

    Opposite-spin CCSD correlation energy     =   -0.309012025444810
    Same-spin CCSD correlation energy         =   -0.085667191375738
    Singles CCSD correlation energy           =    0.000000000000000
    CCSD correlation energy                   =   -0.394679216820548
      * CCSD total energy                     = -151.173863088950839


			**************************
			*                        *
			*         CCHBAR         *
			*                        *
			**************************


			**************************
			*        CCLAMBDA        *
			**************************


	Nuclear Rep. energy (wfn)     =   38.253968531037714
	Reference           (wfn)     =                    0
	SCF energy          (wfn)     = -150.779183872130204
	Reference energy    (CC_INFO) = -150.779183872130290
	CCSD energy         (CC_INFO) =   -0.394679216820548
	Total CCSD energy   (CC_INFO) = -151.173863088950839

	Input parameters:
	-----------------
	Maxiter           =     50
	Convergence       = 1.0e-10
	Restart           =     No
	Cache Level       =     2
	Model III         =     No
	DIIS              =     Yes
	AO Basis          =     No
	ABCD              =     NEW
	Local CC          =     No
	Parameters for left-handed eigenvectors:
	    Irr   Root  Ground-State?    EOM energy        R0
	  1   0     0        Yes       0.0000000000   1.0000000000
	Labels for eigenvector 1:
	LIA 0 -1, Lia 0 -1, LIJAB 0 -1, Lijab 0 -1, LIjAb 0 -1, 2LIjAb - LIjbA 0 -1
	Deleting old CC_LAMBDA data.
	Symmetry of left-hand state: A
	Symmetry of left-hand eigenvector: A

	          Solving Lambda Equations
	          ------------------------
	Iter     PseudoEnergy or Norm         RMS  
	----     ---------------------     --------
	   0        -0.394689328059554    0.000e+00
	   1        -0.387349439153042    8.453e-03
	   2        -0.386490853860475    2.123e-03
	   3        -0.386312160608893    7.361e-04
	   4        -0.386313416157696    2.605e-04
	   5        -0.386314865541727    1.091e-04
	   6        -0.386314215328944    3.723e-05
	   7        -0.386314814120381    1.254e-05
	   8        -0.386314850537239    4.681e-06
	   9        -0.386314799397355    1.965e-06
	  10        -0.386314795701580    6.926e-07
	  11        -0.386314795436464    2.227e-07
	  12        -0.386314798804461    7.185e-08
	  13        -0.386314799705830    2.296e-08
	  14        -0.386314800243787    6.757e-09
	  15        -0.386314800329878    2.354e-09
	  16        -0.386314800342256    1.011e-09
	  17        -0.386314800334161    4.333e-10
	  18        -0.386314800332795    1.820e-10
	  19        -0.386314800333595    7.569e-11

	Largest LIA Amplitudes:
	          5  14        -0.0081755532
	          2   7        -0.0070086010
	          2   4         0.0069941943
	          6  14        -0.0069135103
	          2   9        -0.0068936808
	          2   3        -0.0057514814
	          1   8        -0.0055703120
	          6  16         0.0053757484
	          1   3         0.0053611524
	          5  17         0.0051475837

	Largest LIjAb Amplitudes:
	  2   2  15  15        -0.0651684539
	  2   2  14  15         0.0321208387
	  2   2  15  14         0.0321208387
	  1   2  15  15         0.0299871884
	  2   1  15  15         0.0299871884
	  1   1  15  15        -0.0299054273
	  3   3  17  17        -0.0223852888
	  3   3  15  15        -0.0208672037
	  1   1   1   1        -0.0208322124
	  2   2  14  14        -0.0191106845

	Iterations converged.

	Overlap <L|e^T> =        0.89177805416
			**************************
			*                        *
			*       ccresponse       *
			*                        *
			**************************

	Input parameters:
	-----------------
	Property         =    ROTATION
	Reference wfn    =    RHF
	Memory (Mbytes)  =    524.3
	Cache Level      =    0
	Print Level      =    1
	Maxiter          =    50
	Convergence      =    1.0e-10
	Restart          =    Allowed
	DIIS             =    Yes
	Model III        =    No
	Linear Model     =    No
	ABCD             =    NEW
	Irrep X          =    B
	Irrep Y          =    B
	Irrep Z          =    A
	Irrep RX         =    B
	Irrep RY         =    B
	Irrep RZ         =    A
	Gauge            =    BOTH
	Applied field  0 =    0.077 E_h (589.00 nm, 2.105 eV, 16977.93 cm-1)
	Applied field  1 =    0.128 E_h (355.00 nm, 3.493 eV, 28169.01 cm-1)
	Analyze X2 Amps  =    No
	Local CC         =    No


	Computing P_X-Perturbed Wave Function (0.000 E_h).
	Iter   Pseudopolarizability       RMS 
	----   --------------------   -----------
	   0         8.113232255381
	   1         9.188031256059    2.084e-01
	   2         9.725533045157    1.009e-01
	   3         9.746345862275    3.549e-02
	   4         9.753259479291    1.352e-02
	   5         9.754574968153    5.183e-03
	   6         9.755136503824    2.237e-03
	   7         9.755299382114    9.359e-04
	   8         9.755216976431    3.810e-04
	   9         9.755240001943    1.230e-04
	  10         9.755248481078    4.739e-05
	  11         9.755240712260    1.271e-05
	  12         9.755234581562    3.529e-06
	  13         9.755233414497    8.647e-07
	  14         9.755233334223    3.251e-07
	  15         9.755233318826    1.346e-07
	  16         9.755233284779    5.832e-08
	  17         9.755233258513    2.265e-08
	  18         9.755233248294    9.908e-09
	  19         9.755233248617    3.805e-09
	  20         9.755233248601    1.084e-09
	  21         9.755233248521    4.132e-10
	  22         9.755233248343    1.607e-10
	-----------------------------------------
	Converged P_X-Perturbed Wfn to 5.843e-11

	Computing L_X-Perturbed Wave Function (0.000 E_h).
	Iter   Pseudopolarizability       RMS 
	----   --------------------   -----------
	   0         4.511998334770
	   1         5.673594832034    3.043e-01
	   2         6.772311509360    1.786e-01
	   3         6.818777660815    4.474e-02
	   4         6.849742206524    1.874e-02
	   5         6.851420676259    6.464e-03
	   6         6.852208938363    3.085e-03
	   7         6.852887395272    1.276e-03
	   8         6.852760873758    5.099e-04
	   9         6.852764850168    1.573e-04
	  10         6.852768145558    5.372e-05
	  11         6.852780073219    1.674e-05
	  12         6.852780849173    6.073e-06
	  13         6.852779570057    2.011e-06
	  14         6.852779211237    7.213e-07
	  15         6.852779055686    2.677e-07
	  16         6.852778965181    1.039e-07
	  17         6.852778894349    4.366e-08
	  18         6.852778851630    1.948e-08
	  19         6.852778843841    8.479e-09
	  20         6.852778843303    3.996e-09
	  21         6.852778844724    1.448e-09
	  22         6.852778845120    5.343e-10
	  23         6.852778845256    1.690e-10
	-----------------------------------------
	Converged L_X-Perturbed Wfn to 5.897e-11

	Computing P_Y-Perturbed Wave Function (0.000 E_h).
	Iter   Pseudopolarizability       RMS 
	----   --------------------   -----------
	   0         8.239967643344
	   1         9.701088808520    2.775e-01
	   2        10.647889101928    1.368e-01
	   3        10.682723725945    3.193e-02
	   4        10.692343033109    1.430e-02
	   5        10.693776209441    3.679e-03
	   6        10.693763404004    1.218e-03
	   7        10.693954224038    3.738e-04
	   8        10.693933921639    1.544e-04
	   9        10.693912089765    7.834e-05
	  10        10.693920350051    3.646e-05
	  11        10.693926418992    1.254e-05
	  12        10.693928214972    3.773e-06
	  13        10.693926477594    1.302e-06
	  14        10.693925932992    5.266e-07
	  15        10.693925757763    1.782e-07
	  16        10.693925770352    6.191e-08
	  17        10.693925754782    2.377e-08
	  18        10.693925749748    8.886e-09
	  19        10.693925749763    3.336e-09
	  20        10.693925750400    1.411e-09
	  21        10.693925750352    7.910e-10
	  22        10.693925750252    2.988e-10
	-----------------------------------------
	Converged P_Y-Perturbed Wfn to 8.392e-11

	Computing L_Y-Perturbed Wave Function (0.000 E_h).
	Iter   Pseudopolarizability       RMS 
	----   --------------------   -----------
	   0         0.248367209011
	   1         0.330751939063    8.416e-02
	   2         0.415463347279    5.142e-02
	   3         0.421498313406    1.413e-02
	   4         0.423281601410    3.672e-03
	   5         0.423146777467    1.120e-03
	   6         0.423130292473    4.528e-04
	   7         0.423169472702    2.385e-04
	   8         0.423155955045    9.755e-05
	   9         0.423160039907    2.244e-05
	  10         0.423160555025    8.149e-06
	  11         0.423159974295    2.323e-06
	  12         0.423159403919    8.158e-07
	  13         0.423159359366    1.940e-07
	  14         0.423159406843    8.872e-08
	  15         0.423159427523    2.873e-08
	  16         0.423159432926    1.029e-08
	  17         0.423159432285    3.074e-09
	  18         0.423159432190    9.318e-10
	  19         0.423159432141    3.899e-10
	  20         0.423159432147    1.141e-10
	-----------------------------------------
	Converged L_Y-Perturbed Wfn to 3.156e-11

	Computing P_Z-Perturbed Wave Function (0.000 E_h).
	Iter   Pseudopolarizability       RMS 
	----   --------------------   -----------
	   0         8.653595299400
	   1         9.890166201003    2.481e-01
	   2        10.634892339000    1.161e-01
	   3        10.644599124981    2.795e-02
	   4        10.648256979865    1.206e-02
	   5        10.649541203260    3.652e-03
	   6        10.649676388521    1.366e-03
	   7        10.649833946261    5.788e-04
	   8        10.649816174475    2.168e-04
	   9        10.649803263375    6.256e-05
	  10        10.649807549723    1.996e-05
	  11        10.649809382681    7.394e-06
	  12        10.649809986526    2.582e-06
	  13        10.649809270213    9.325e-07
	  14        10.649808987814    3.546e-07
	  15        10.649808882800    1.326e-07
	  16        10.649808874181    5.221e-08
	  17        10.649808865551    2.144e-08
	  18        10.649808861680    9.371e-09
	  19        10.649808861980    3.673e-09
	  20        10.649808862665    1.151e-09
	  21        10.649808862854    3.450e-10
	  22        10.649808862923    1.398e-10
	-----------------------------------------
	Converged P_Z-Perturbed Wfn to 6.049e-11

	Computing L_Z-Perturbed Wave Function (0.000 E_h).
	Iter   Pseudopolarizability       RMS 
	----   --------------------   -----------
	   0         4.012584663606
	   1         4.944052741629    2.664e-01
	   2         5.807369673855    1.696e-01
	   3         5.905655511729    5.872e-02
	   4         5.945872547965    1.934e-02
	   5         5.944344263211    5.842e-03
	   6         5.944950883522    2.206e-03
	   7         5.945276353058    7.147e-04
	   8         5.945106170216    2.702e-04
	   9         5.945115823197    7.061e-05
	  10         5.945114627140    2.405e-05
	  11         5.945114475651    8.593e-06
	  12         5.945110091583    3.743e-06
	  13         5.945108891865    1.485e-06
	  14         5.945109282043    6.070e-07
	  15         5.945109597926    1.993e-07
	  16         5.945109688293    6.737e-08
	  17         5.945109689893    1.973e-08
	  18         5.945109687635    6.334e-09
	  19         5.945109688595    2.269e-09
	  20         5.945109689042    5.633e-10
	  21         5.945109689162    1.766e-10
	-----------------------------------------
	Converged L_Z-Perturbed Wfn to 8.369e-11

	Computing <<P;L>>_(0.000) tensor.

    CCSD Optical Rotation Tensor (Velocity Gauge): <<P;L>>_(0.000)
  -------------------------------------------------------------------------
   Evaluated at omega = 0.00 E_h (Inf nm, 0.0 eV, 0.0 cm-1)
  -------------------------------------------------------------------------

                   0                     1                     2        

    0      0.363702792459799    -0.362754886434693     0.000000000000000
    1     -0.116320922974629     0.012078489119707     0.000000000000000
    2      0.000000000000000     0.000000000000000    -0.392022201675664

	Computing Mu_X-Perturbed Wave Function (-0.077 E_h).
	Iter   Pseudopolarizability       RMS 
	----   --------------------   -----------
	   0         3.701184611663
	   1         4.466332106197    2.237e-01
	   2         5.048530413775    1.153e-01
	   3         5.053341668785    2.407e-02
	   4         5.060192162706    8.581e-03
	   5         5.060643237466    2.456e-03
	   6         5.060601020150    6.650e-04
	   7         5.060683580003    2.644e-04
	   8         5.060648589330    9.083e-05
	   9         5.060642776010    3.515e-05
	  10         5.060643352557    1.589e-05
	  11         5.060644569732    4.964e-06
	  12         5.060644177734    1.094e-06
	  13         5.060643840654    2.768e-07
	  14         5.060643785244    8.338e-08
	  15         5.060643787387    2.647e-08
	  16         5.060643793947    9.235e-09
	  17         5.060643795761    2.870e-09
	  18         5.060643795766    1.083e-09
	  19         5.060643795783    2.850e-10
	  20         5.060643795834    1.181e-10
	-----------------------------------------
	Converged Mu_X-Perturbed Wfn to 4.663e-11

	Computing P_X-Perturbed Wave Function (-0.077 E_h).
	Iter   Pseudopolarizability       RMS 
	----   --------------------   -----------
	   0         7.866534067597
	   1         8.865878369114    1.879e-01
	   2         9.321768224524    8.332e-02
	   3         9.332009071979    2.534e-02
	   4         9.334500308997    8.772e-03
	   5         9.334993423331    2.963e-03
	   6         9.335227455499    1.133e-03
	   7         9.335292402954    4.278e-04
	   8         9.335256689601    1.576e-04
	   9         9.335262873127    4.346e-05
	  10         9.335265225137    1.530e-05
	  11         9.335263145807    4.244e-06
	  12         9.335261454375    1.140e-06
	  13         9.335261125231    2.473e-07
	  14         9.335261101990    7.760e-08
	  15         9.335261097622    2.811e-08
	  16         9.335261091371    1.117e-08
	  17         9.335261086804    3.943e-09
	  18         9.335261084962    1.481e-09
	  19         9.335261084890    5.110e-10
	  20         9.335261084937    1.363e-10
	-----------------------------------------
	Converged P_X-Perturbed Wfn to 4.052e-11

	Computing L_X-Perturbed Wave Function (0.077 E_h).
	Iter   Pseudopolarizability       RMS 
	----   --------------------   -----------
	   0         4.734366103925
	   1         6.039740960229    3.521e-01
	   2         7.477018789867    2.246e-01
	   3         7.582057649157    6.663e-02
	   4         7.648203591999    3.104e-02
	   5         7.653797836829    1.253e-02
	   6         7.656631424056    6.753e-03
	   7         7.658737797405    3.217e-03
	   8         7.658510967926    1.563e-03
	   9         7.658606395054    5.634e-04
	  10         7.658638879995    2.133e-04
	  11         7.658682998100    7.378e-05
	  12         7.658676072320    3.191e-05
	  13         7.658667790155    1.114e-05
	  14         7.658666717383    4.283e-06
	  15         7.658666239910    1.796e-06
	  16         7.658665584819    8.471e-07
	  17         7.658664832854    3.959e-07
	  18         7.658664465401    1.954e-07
	  19         7.658664349861    1.141e-07
	  20         7.658664342979    5.691e-08
	  21         7.658664357429    2.282e-08
	  22         7.658664360683    9.518e-09
	  23         7.658664363708    3.629e-09
	  24         7.658664364453    1.032e-09
	  25         7.658664364538    3.553e-10
	  26         7.658664364610    1.643e-10
	-----------------------------------------
	Converged L_X-Perturbed Wfn to 6.080e-11

	Computing Mu_Y-Perturbed Wave Function (-0.077 E_h).
	Iter   Pseudopolarizability       RMS 
	----   --------------------   -----------
	   0         7.683224840388
	   1         9.714405173844    4.039e-01
	   2        11.687621016357    2.140e-01
	   3        11.709288418459    3.628e-02
	   4        11.736025152191    1.721e-02
	   5        11.739344824344    4.374e-03
	   6        11.738944282594    1.364e-03
	   7        11.739199871821    5.941e-04
	   8        11.739217044654    2.538e-04
	   9        11.739156644578    8.183e-05
	  10        11.739164824615    2.147e-05
	  11        11.739181001544    7.105e-06
	  12        11.739189120713    1.634e-06
	  13        11.739189287933    4.679e-07
	  14        11.739188836493    2.116e-07
	  15        11.739188497267    6.983e-08
	  16        11.739188459575    2.552e-08
	  17        11.739188461591    8.258e-09
	  18        11.739188464749    2.908e-09
	  19        11.739188464184    1.404e-09
	  20        11.739188463856    5.201e-10
	  21        11.739188463757    1.729e-10
	-----------------------------------------
	Converged Mu_Y-Perturbed Wfn to 5.907e-11

	Computing P_Y-Perturbed Wave Function (-0.077 E_h).
	Iter   Pseudopolarizability       RMS 
	----   --------------------   -----------
	   0         7.914235388345
	   1         9.250158697421    2.487e-01
	   2        10.037451692516    1.145e-01
	   3        10.059001453863    2.417e-02
	   4        10.063414656698    1.012e-02
	   5        10.064118024085    2.321e-03
	   6        10.064098523961    7.047e-04
	   7        10.064201085258    2.032e-04
	   8        10.064191835523    6.571e-05
	   9        10.064182059249    2.841e-05
	  10        10.064184475013    1.277e-05
	  11        10.064186881237    4.624e-06
	  12        10.064187662643    1.130e-06
	  13        10.064187193616    3.034e-07
	  14        10.064187035954    1.156e-07
	  15        10.064186972670    3.839e-08
	  16        10.064186972633    1.109e-08
	  17        10.064186971603    3.766e-09
	  18        10.064186971127    1.417e-09
	  19        10.064186971098    4.591e-10
	  20        10.064186971147    1.345e-10
	-----------------------------------------
	Converged P_Y-Perturbed Wfn to 5.415e-11

	Computing L_Y-Perturbed Wave Function (0.077 E_h).
	Iter   Pseudopolarizability       RMS 
	----   --------------------   -----------
	   0         0.260905028552
	   1         0.353171701457    9.756e-02
	   2         0.464811462018    6.517e-02
	   3         0.479121752485    2.190e-02
	   4         0.483278762811    6.564e-03
	   5         0.483108733423    2.517e-03
	   6         0.483088266695    1.297e-03
	   7         0.483272133306    7.649e-04
	   8         0.483220647574    2.937e-04
	   9         0.483236846901    7.748e-05
	  10         0.483238098474    3.405e-05
	  11         0.483235066609    9.968e-06
	  12         0.483232151502    3.960e-06
	  13         0.483231933039    1.261e-06
	  14         0.483232353880    6.810e-07
	  15         0.483232544249    2.279e-07
	  16         0.483232597113    9.221e-08
	  17         0.483232590908    2.966e-08
	  18         0.483232591521    1.138e-08
	  19         0.483232591427    5.684e-09
	  20         0.483232591862    1.536e-09
	  21         0.483232591882    4.567e-10
	  22         0.483232591987    2.048e-10
	-----------------------------------------
	Converged L_Y-Perturbed Wfn to 7.815e-11

	Computing Mu_Z-Perturbed Wave Function (-0.077 E_h).
	Iter   Pseudopolarizability       RMS 
	----   --------------------   -----------
	   0         5.589662355577
	   1         6.874619139383    3.050e-01
	   2         7.928633686909    1.502e-01
	   3         7.927595314620    2.448e-02
	   4         7.935133226091    1.041e-02
	   5         7.936327522299    2.530e-03
	   6         7.936232248617    8.148e-04
	   7         7.936306804371    3.309e-04
	   8         7.936293581892    1.056e-04
	   9         7.936274374105    3.199e-05
	  10         7.936276350218    1.019e-05
	  11         7.936280263138    3.815e-06
	  12         7.936282374738    1.063e-06
	  13         7.936282378318    3.664e-07
	  14         7.936282160998    1.314e-07
	  15         7.936282048729    4.186e-08
	  16         7.936282030234    1.335e-08
	  17         7.936282029473    4.483e-09
	  18         7.936282029644    1.606e-09
	  19         7.936282029613    5.691e-10
	  20         7.936282029512    2.270e-10
	-----------------------------------------
	Converged Mu_Z-Perturbed Wfn to 8.007e-11

	Computing P_Z-Perturbed Wave Function (-0.077 E_h).
	Iter   Pseudopolarizability       RMS 
	----   --------------------   -----------
	   0         8.340107636357
	   1         9.473558095810    2.226e-01
	   2        10.095265087799    9.682e-02
	   3        10.099645822192    2.050e-02
	   4        10.100379234791    8.210e-03
	   5        10.100989615376    2.225e-03
	   6        10.101040077726    7.462e-04
	   7        10.101117770674    2.883e-04
	   8        10.101111261348    9.801e-05
	   9        10.101104536263    2.631e-05
	  10        10.101106050612    7.810e-06
	  11        10.101106852739    2.784e-06
	  12        10.101107225893    8.783e-07
	  13        10.101107028394    2.873e-07
	  14        10.101106944718    9.947e-08
	  15        10.101106915237    3.253e-08
	  16        10.101106914580    1.054e-08
	  17        10.101106914130    3.894e-09
	  18        10.101106913528    1.602e-09
	  19        10.101106913519    5.216e-10
	  20        10.101106913514    1.956e-10
	-----------------------------------------
	Converged P_Z-Perturbed Wfn to 6.090e-11

	Computing L_Z-Perturbed Wave Function (0.077 E_h).
	Iter   Pseudopolarizability       RMS 
	----   --------------------   -----------
	   0         4.182431459881
	   1         5.219803967823    3.102e-01
	   2         6.347230408682    2.169e-01
	   3         6.576925955946    9.235e-02
	   4         6.676221533786    3.600e-02
	   5         6.676645970599    1.323e-02
	   6         6.679514800148    5.742e-03
	   7         6.680633711060    2.070e-03
	   8         6.679982577990    8.770e-04
	   9         6.680026342565    2.992e-04
	  10         6.680023240254    1.468e-04
	  11         6.680011316738    6.537e-05
	  12         6.679968028902    2.891e-05
	  13         6.679961952198    9.692e-06
	  14         6.679966759362    3.295e-06
	  15         6.679968963131    1.139e-06
	  16         6.679969651749    4.283e-07
	  17         6.679969685227    1.324e-07
	  18         6.679969711964    4.713e-08
	  19         6.679969748634    1.974e-08
	  20         6.679969763064    7.428e-09
	  21         6.679969770346    3.603e-09
	  22         6.679969774384    1.748e-09
	  23         6.679969776429    7.136e-10
	  24         6.679969776883    2.194e-10
	-----------------------------------------
	Converged L_Z-Perturbed Wfn to 9.118e-11

	Computing 1/2 <<Mu;L>>_(0.077) tensor.
	Computing 1/2 <<P;L>>_(0.077) tensor.

	Computing Mu_X-Perturbed Wave Function (0.077 E_h).
	Iter   Pseudopolarizability       RMS 
	----   --------------------   -----------
	   0         4.057030543999
	   1         5.012954424042    2.954e-01
	   2         5.975394494733    1.793e-01
	   3         6.016952179686    5.180e-02
	   4         6.052072060449    2.320e-02
	   5         6.056066191506    9.314e-03
	   6         6.056038856173    3.801e-03
	   7         6.056774020984    2.031e-03
	   8         6.056404295893    9.788e-04
	   9         6.056399701578    4.945e-04
	  10         6.056420641924    2.001e-04
	  11         6.056411171818    5.138e-05
	  12         6.056393086980    1.771e-05
	  13         6.056386921971    6.797e-06
	  14         6.056388724858    3.146e-06
	  15         6.056390680864    1.282e-06
	  16         6.056391311723    4.577e-07
	  17         6.056391300010    1.887e-07
	  18         6.056391241346    7.849e-08
	  19         6.056391221380    3.637e-08
	  20         6.056391217998    1.577e-08
	  21         6.056391213680    8.343e-09
	  22         6.056391212757    2.671e-09
	  23         6.056391212627    7.590e-10
	  24         6.056391212976    3.339e-10
	  25         6.056391213178    1.332e-10
	-----------------------------------------
	Converged Mu_X-Perturbed Wfn to 5.536e-11

	Computing P*_X-Perturbed Wave Function (0.077 E_h).
	Iter   Pseudopolarizability       RMS 
	----   --------------------   -----------
	   0         8.379428441775
	   1         9.541496652643    2.343e-01
	   2        10.187801548982    1.252e-01
	   3        10.232314968654    5.207e-02
	   4        10.251531958174    2.260e-02
	   5        10.255713477321    1.016e-02
	   6        10.257526381169    5.067e-03
	   7        10.258148765977    2.429e-03
	   8        10.257969985982    1.125e-03
	   9        10.258089679086    4.404e-04
	  10        10.258130253154    1.816e-04
	  11        10.258095915374    4.692e-05
	  12        10.258069017653    1.442e-05
	  13        10.258063807998    4.576e-06
	  14        10.258063784448    2.195e-06
	  15        10.258063939316    9.864e-07
	  16        10.258063789327    4.281e-07
	  17        10.258063589887    1.939e-07
	  18        10.258063492988    1.064e-07
	  19        10.258063479762    4.636e-08
	  20        10.258063465506    1.662e-08
	  21        10.258063459336    6.719e-09
	  22        10.258063455830    2.373e-09
	  23        10.258063455168    1.139e-09
	  24        10.258063454871    4.760e-10
	  25        10.258063454766    1.807e-10
	-----------------------------------------
	Converged P*_X-Perturbed Wfn to 6.733e-11

	Computing L*_X-Perturbed Wave Function (-0.077 E_h).
	Iter   Pseudopolarizability       RMS 
	----   --------------------   -----------
	   0         4.314801447826
	   1         5.359209971705    2.672e-01
	   2         6.226202855033    1.456e-01
	   3         6.248616973914    3.195e-02
	   4         6.264713332425    1.225e-02
	   5         6.265331415192    3.713e-03
	   6         6.265622775064    1.583e-03
	   7         6.265901184340    5.961e-04
	   8         6.265844047517    2.068e-04
	   9         6.265840528039    5.665e-05
	  10         6.265840837679    1.749e-05
	  11         6.265844978143    4.983e-06
	  12         6.265845634171    1.445e-06
	  13         6.265845358394    4.391e-07
	  14         6.265845228973    1.600e-07
	  15         6.265845174397    5.668e-08
	  16         6.265845158689    1.840e-08
	  17         6.265845151108    6.359e-09
	  18         6.265845146556    2.387e-09
	  19         6.265845145712    8.389e-10
	  20         6.265845145478    3.717e-10
	  21         6.265845145525    1.455e-10
	-----------------------------------------
	Converged L*_X-Perturbed Wfn to 5.316e-11

	Computing Mu_Y-Perturbed Wave Function (0.077 E_h).
	Iter   Pseudopolarizability       RMS 
	----   --------------------   -----------
	   0         8.736109420317
	   1        11.378062175411    5.273e-01
	   2        14.627093128034    3.171e-01
	   3        14.709692485812    6.752e-02
	   4        14.804696982284    3.802e-02
	   5        14.818984723041    1.310e-02
	   6        14.818103174358    5.517e-03
	   7        14.819706924667    3.288e-03
	   8        14.820119262279    1.697e-03
	   9        14.819708969149    5.868e-04
	  10        14.819761096650    2.113e-04
	  11        14.819955220468    9.946e-05
	  12        14.820082310276    3.531e-05
	  13        14.820069811497    1.275e-05
	  14        14.820045841289    6.139e-06
	  15        14.820032758728    2.913e-06
	  16        14.820030889304    1.119e-06
	  17        14.820031052067    3.255e-07
	  18        14.820030988554    1.975e-07
	  19        14.820030932020    1.053e-07
	  20        14.820030906504    3.394e-08
	  21        14.820030909689    1.553e-08
	  22        14.820030908414    4.129e-09
	  23        14.820030909272    1.361e-09
	  24        14.820030910316    6.868e-10
	  25        14.820030910914    3.049e-10
	  26        14.820030911124    1.499e-10
	-----------------------------------------
	Converged Mu_Y-Perturbed Wfn to 5.177e-11

	Computing P*_Y-Perturbed Wave Function (0.077 E_h).
	Iter   Pseudopolarizability       RMS 
	----   --------------------   -----------
	   0         8.602328705283
	   1        10.212748236952    3.131e-01
	   2        11.374664353137    1.665e-01
	   3        11.434205034824    4.368e-02
	   4        11.455271260595    2.114e-02
	   5        11.458498295365    6.298e-03
	   6        11.458565370299    2.302e-03
	   7        11.458963363742    8.033e-04
	   8        11.458912341174    4.302e-04
	   9        11.458856766572    2.457e-04
	  10        11.458891771539    1.211e-04
	  11        11.458912949755    4.729e-05
	  12        11.458918064920    2.017e-05
	  13        11.458908328662    7.585e-06
	  14        11.458905546359    2.792e-06
	  15        11.458904705388    1.060e-06
	  16        11.458904591305    4.336e-07
	  17        11.458904352447    1.878e-07
	  18        11.458904314760    7.017e-08
	  19        11.458904329902    3.097e-08
	  20        11.458904340682    1.795e-08
	  21        11.458904338795    1.055e-08
	  22        11.458904336111    3.113e-09
	  23        11.458904335184    1.578e-09
	  24        11.458904335307    6.660e-10
	  25        11.458904335393    2.728e-10
	  26        11.458904335478    1.113e-10
	-----------------------------------------
	Converged P*_Y-Perturbed Wfn to 4.058e-11

	Computing L*_Y-Perturbed Wave Function (-0.077 E_h).
	Iter   Pseudopolarizability       RMS 
	----   --------------------   -----------
	   0         0.237260244024
	   1         0.311581393293    7.385e-02
	   2         0.378113936487    4.166e-02
	   3         0.380946544907    9.775e-03
	   4         0.381824003006    2.281e-03
	   5         0.381739934224    5.843e-04
	   6         0.381731864957    1.865e-04
	   7         0.381743045081    8.249e-05
	   8         0.381739000502    3.574e-05
	   9         0.381740334315    8.640e-06
	  10         0.381740563151    2.637e-06
	  11         0.381740418962    7.129e-07
	  12         0.381740262152    2.318e-07
	  13         0.381740247730    4.605e-08
	  14         0.381740255156    1.650e-08
	  15         0.381740258542    5.307e-09
	  16         0.381740259422    1.679e-09
	  17         0.381740259385    5.328e-10
	  18         0.381740259356    1.498e-10
	-----------------------------------------
	Converged L*_Y-Perturbed Wfn to 5.276e-11

	Computing Mu_Z-Perturbed Wave Function (0.077 E_h).
	Iter   Pseudopolarizability       RMS 
	----   --------------------   -----------
	   0         6.253972378165
	   1         7.898889016246    3.989e-01
	   2         9.620960220458    2.265e-01
	   3         9.639820677325    4.893e-02
	   4         9.676371479021    2.481e-02
	   5         9.682172563380    8.187e-03
	   6         9.681947025118    3.248e-03
	   7         9.682407545729    1.660e-03
	   8         9.682362818993    6.262e-04
	   9         9.682261653189    2.144e-04
	  10         9.682281372959    7.611e-05
	  11         9.682312828281    3.356e-05
	  12         9.682333437343    1.315e-05
	  13         9.682331123054    6.023e-06
	  14         9.682325907833    2.901e-06
	  15         9.682323048765    1.391e-06
	  16         9.682322833282    6.136e-07
	  17         9.682323047735    2.665e-07
	  18         9.682323171093    1.180e-07
	  19         9.682323199962    4.930e-08
	  20         9.682323205434    1.396e-08
	  21         9.682323206331    4.983e-09
	  22         9.682323207719    2.287e-09
	  23         9.682323207464    8.236e-10
	  24         9.682323207272    3.770e-10
	  25         9.682323206945    1.928e-10
	-----------------------------------------
	Converged Mu_Z-Perturbed Wfn to 7.671e-11

	Computing P*_Z-Perturbed Wave Function (0.077 E_h).
	Iter   Pseudopolarizability       RMS 
	----   --------------------   -----------
	   0         8.998024178782
	   1        10.356708166524    2.799e-01
	   2        11.267860455666    1.421e-01
	   3        11.289448051550    3.965e-02
	   4        11.300667029295    1.866e-02
	   5        11.303696953448    6.518e-03
	   6        11.304126233416    2.776e-03
	   7        11.304514268863    1.328e-03
	   8        11.304475498106    5.660e-04
	   9        11.304453784297    1.843e-04
	  10        11.304472308289    6.947e-05
	  11        11.304478324842    3.220e-05
	  12        11.304478007485    1.579e-05
	  13        11.304472981587    7.070e-06
	  14        11.304471535149    3.099e-06
	  15        11.304471131452    1.358e-06
	  16        11.304471057342    5.488e-07
	  17        11.304470905271    2.110e-07
	  18        11.304470866208    9.651e-08
	  19        11.304470869070    4.259e-08
	  20        11.304470872867    1.187e-08
	  21        11.304470870497    4.733e-09
	  22        11.304470868012    2.290e-09
	  23        11.304470866881    6.855e-10
	  24        11.304470866573    2.556e-10
	  25        11.304470866486    1.046e-10
	-----------------------------------------
	Converged P*_Z-Perturbed Wfn to 3.916e-11

	Computing L*_Z-Perturbed Wave Function (-0.077 E_h).
	Iter   Pseudopolarizability       RMS 
	----   --------------------   -----------
	   0         3.860227142248
	   1         4.705081672501    2.330e-01
	   2         5.385168110928    1.365e-01
	   3         5.432836530273    4.047e-02
	   4         5.452279844754    1.183e-02
	   5         5.451216181546    3.137e-03
	   6         5.451449232565    1.047e-03
	   7         5.451588681295    3.198e-04
	   8         5.451534586010    1.148e-04
	   9         5.451540470711    2.980e-05
	  10         5.451541069811    9.450e-06
	  11         5.451541640723    3.019e-06
	  12         5.451540835707    1.187e-06
	  13         5.451540747920    3.992e-07
	  14         5.451540919850    1.499e-07
	  15         5.451541002072    4.863e-08
	  16         5.451541025613    1.412e-08
	  17         5.451541028702    3.882e-09
	  18         5.451541028752    1.178e-09
	  19         5.451541029041    3.578e-10
	  20         5.451541029193    1.190e-10
	-----------------------------------------
	Converged L*_Z-Perturbed Wfn to 4.339e-11

	Computing 1/2 <<Mu;L*>>_(0.077) tensor.
	Computing 1/2 <<P*;L*>>_(0.077) tensor.
	Computing <<P;Mu>>_(0.077) tensor.

           CCSD Optical Rotation Tensor (Length Gauge):
  -------------------------------------------------------------------------
   Evaluated at omega = 0.077357 E_h (589.00 nm, 2.105 eV, 16977.93 cm-1)
  -------------------------------------------------------------------------

                   0                     1                     2        

    0      0.141679366346852    -0.070714073848342     0.000000000000000
    1     -0.272710107838364     0.001289285224465     0.000000000000000
    2      0.000000000000000     0.000000000000000    -0.127276912258661

   Specific rotation using length-gauge electric-dipole Rosenfeld tensor.
	[alpha]_(0.077) =  -76.93388 deg/[dm (g/cm^3)]

         CCSD Optical Rotation Tensor (Velocity Gauge):
  -------------------------------------------------------------------------
   Evaluated at omega = 0.077357 E_h (589.00 nm, 2.105 eV, 16977.93 cm-1)
  -------------------------------------------------------------------------

                   0                     1                     2        

    0      0.375624000190495    -0.374245927681760     0.000000000000000
    1     -0.139409385269470     0.012686793056731     0.000000000000000
    2      0.000000000000000     0.000000000000000    -0.401726047794974

   Specific rotation using velocity-gauge electric-dipole Rosenfeld tensor.
	[alpha]_(0.077) =  850.24697 deg/[dm (g/cm^3)]

        CCSD Optical Rotation Tensor (Modified Velocity Gauge):
  -------------------------------------------------------------------------
   Evaluated at omega = 0.077357 E_h (589.00 nm, 2.105 eV, 16977.93 cm-1)
  -------------------------------------------------------------------------

                   0                     1                     2        

    0      0.011921207730697    -0.011491041247067     0.000000000000000
    1     -0.023088462294841     0.000608303937024     0.000000000000000
    2      0.000000000000000     0.000000000000000    -0.009703846119309

   Specific rotation using modified velocity-gauge Rosenfeld tensor.
	[alpha]_(0.077) = -179.08818 deg/[dm (g/cm^3)]

   Origin-dependence vector for length-gauge rotation deg/[dm (g/cm^3)]/bohr.
     Delta_x =   0.00   Delta_y =   0.00   Delta_z = -19.65

	Computing Mu_X-Perturbed Wave Function (-0.128 E_h).
	Iter   Pseudopolarizability       RMS 
	----   --------------------   -----------
	   0         3.600101268377
	   1         4.316927027596    2.067e-01
	   2         4.822990062821    1.016e-01
	   3         4.824705775961    1.953e-02
	   4         4.828980988105    6.593e-03
	   5         4.829239638666    1.742e-03
	   6         4.829216777681    4.271e-04
	   7         4.829267975060    1.537e-04
	   8         4.829250717408    4.680e-05
	   9         4.829247407805    1.563e-05
	  10         4.829247675967    7.041e-06
	  11         4.829248510091    2.588e-06
	  12         4.829248436790    5.668e-07
	  13         4.829248280107    1.335e-07
	  14         4.829248247275    3.749e-08
	  15         4.829248244201    1.064e-08
	  16         4.829248245462    3.249e-09
	  17         4.829248245907    9.092e-10
	  18         4.829248245860    3.293e-10
	-----------------------------------------
	Converged Mu_X-Perturbed Wfn to 9.663e-11

	Computing P_X-Perturbed Wave Function (-0.128 E_h).
	Iter   Pseudopolarizability       RMS 
	----   --------------------   -----------
	   0         7.713341549392
	   1         8.668177720809    1.765e-01
	   2         9.080893223071    7.431e-02
	   3         9.087440523917    2.071e-02
	   4         9.088617781866    6.813e-03
	   5         9.088891225829    2.148e-03
	   6         9.089037316619    7.646e-04
	   7         9.089077795215    2.726e-04
	   8         9.089056517636    9.491e-05
	   9         9.089059450704    2.406e-05
	  10         9.089060568800    7.909e-06
	  11         9.089059638417    2.212e-06
	  12         9.089058866895    5.900e-07
	  13         9.089058713127    1.222e-07
	  14         9.089058703548    3.486e-08
	  15         9.089058702243    1.152e-08
	  16         9.089058700343    4.179e-09
	  17         9.089058698830    1.398e-09
	  18         9.089058698173    4.890e-10
	  19         9.089058698103    1.592e-10
	-----------------------------------------
	Converged P_X-Perturbed Wfn to 4.478e-11

	Computing L_X-Perturbed Wave Function (0.128 E_h).
	Iter   Pseudopolarizability       RMS 
	----   --------------------   -----------
	   0         4.897796626771
	   1         6.317365214472    3.918e-01
	   2         8.067299873377    2.656e-01
	   3         8.259545758585    9.071e-02
	   4         8.377742051807    4.595e-02
	   5         8.392064179775    2.096e-02
	   6         8.399976274138    1.239e-02
	   7         8.405463468594    6.767e-03
	   8         8.405624404528    3.868e-03
	   9         8.406188763830    1.590e-03
	  10         8.406367294121    6.480e-04
	  11         8.406509594222    2.469e-04
	  12         8.406461565071    1.199e-04
	  13         8.406425949750    4.517e-05
	  14         8.406422604339    1.928e-05
	  15         8.406420721862    8.975e-06
	  16         8.406416662830    4.501e-06
	  17         8.406411942529    2.130e-06
	  18         8.406409893434    1.162e-06
	  19         8.406408678091    7.871e-07
	  20         8.406408507428    4.189e-07
	  21         8.406408507619    2.090e-07
	  22         8.406408530424    9.494e-08
	  23         8.406408569141    3.929e-08
	  24         8.406408578126    1.192e-08
	  25         8.406408583528    5.579e-09
	  26         8.406408587308    2.300e-09
	  27         8.406408588758    8.876e-10
	  28         8.406408589722    4.742e-10
	  29         8.406408589708    2.221e-10
	-----------------------------------------
	Converged L_X-Perturbed Wfn to 9.102e-11

	Computing Mu_Y-Perturbed Wave Function (-0.128 E_h).
	Iter   Pseudopolarizability       RMS 
	----   --------------------   -----------
	   0         7.394062446936
	   1         9.273057899833    3.735e-01
	   2        10.982677143284    1.906e-01
	   3        10.997182182183    3.057e-02
	   4        11.015795049545    1.384e-02
	   5        11.018076625504    3.256e-03
	   6        11.017792576429    9.467e-04
	   7        11.017954981406    3.746e-04
	   8        11.017962589026    1.505e-04
	   9        11.017927122476    4.916e-05
	  10        11.017932048699    1.265e-05
	  11        11.017940902322    3.993e-06
	  12        11.017945089248    8.237e-07
	  13        11.017945202875    2.060e-07
	  14        11.017945050510    8.748e-08
	  15        11.017944913401    2.755e-08
	  16        11.017944895888    8.267e-09
	  17        11.017944895424    2.916e-09
	  18        11.017944896444    9.727e-10
	  19        11.017944896421    3.792e-10
	  20        11.017944896313    1.556e-10
	-----------------------------------------
	Converged Mu_Y-Perturbed Wfn to 5.049e-11

	Computing P_Y-Perturbed Wave Function (-0.128 E_h).
	Iter   Pseudopolarizability       RMS 
	----   --------------------   -----------
	   0         7.716547787288
	   1         8.980384654307    2.326e-01
	   2         9.684086686461    1.026e-01
	   3         9.700197785526    2.043e-02
	   4         9.702773063571    8.217e-03
	   5         9.703227747287    1.771e-03
	   6         9.703210365405    5.096e-04
	   7         9.703281362553    1.440e-04
	   8         9.703275475690    4.076e-05
	   9         9.703269350472    1.553e-05
	  10         9.703270575587    6.650e-06
	  11         9.703271970911    2.553e-06
	  12         9.703272445377    6.143e-07
	  13         9.703272207094    1.488e-07
	  14         9.703272127944    5.261e-08
	  15         9.703272095015    1.696e-08
	  16         9.703272094030    4.381e-09
	  17         9.703272093655    1.381e-09
	  18         9.703272093443    5.151e-10
	  19         9.703272093421    1.585e-10
	-----------------------------------------
	Converged P_Y-Perturbed Wfn to 4.349e-11

	Computing L_Y-Perturbed Wave Function (0.128 E_h).
	Iter   Pseudopolarizability       RMS 
	----   --------------------   -----------
	   0         0.270133893656
	   1         0.370251981529    1.088e-01
	   2         0.506867849248    7.757e-02
	   3         0.534370726558    3.082e-02
	   4         0.542494563790    1.048e-02
	   5         0.542507991825    4.811e-03
	   6         0.542565788782    2.897e-03
	   7         0.543220488293    1.840e-03
	   8         0.543094010393    7.165e-04
	   9         0.543150044042    2.254e-04
	  10         0.543151895249    1.105e-04
	  11         0.543141077534    3.292e-05
	  12         0.543129512847    1.505e-05
	  13         0.543128635066    5.978e-06
	  14         0.543131061751    3.369e-06
	  15         0.543132178516    1.183e-06
	  16         0.543132471940    5.119e-07
	  17         0.543132438797    1.838e-07
	  18         0.543132442447    8.193e-08
	  19         0.543132444932    4.247e-08
	  20         0.543132447048    9.667e-09
	  21         0.543132447045    3.327e-09
	  22         0.543132447744    1.397e-09
	  23         0.543132448096    5.862e-10
	  24         0.543132448235    2.405e-10
	-----------------------------------------
	Converged L_Y-Perturbed Wfn to 7.744e-11

	Computing Mu_Z-Perturbed Wave Function (-0.128 E_h).
	Iter   Pseudopolarizability       RMS 
	----   --------------------   -----------
	   0         5.404411456861
	   1         6.598966194486    2.821e-01
	   2         7.515826438048    1.333e-01
	   3         7.513416807840    2.023e-02
	   4         7.518023894283    8.199e-03
	   5         7.518815887120    1.834e-03
	   6         7.518752499264    5.596e-04
	   7         7.518801515795    2.130e-04
	   8         7.518793906412    6.505e-05
	   9         7.518781998009    1.891e-05
	  10         7.518783115784    5.849e-06
	  11         7.518785286222    2.143e-06
	  12         7.518786425004    5.634e-07
	  13         7.518786440307    1.849e-07
	  14         7.518786345674    6.421e-08
	  15         7.518786296709    1.911e-08
	  16         7.518786289189    5.663e-09
	  17         7.518786288994    1.831e-09
	  18         7.518786289086    6.117e-10
	  19         7.518786289101    2.006e-10
	-----------------------------------------
	Converged Mu_Z-Perturbed Wfn to 7.727e-11

	Computing P_Z-Perturbed Wave Function (-0.128 E_h).
	Iter   Pseudopolarizability       RMS 
	----   --------------------   -----------
	   0         8.148089790155
	   1         9.221847307914    2.084e-01
	   2         9.779104906294    8.671e-02
	   3         9.781648665207    1.702e-02
	   4         9.781515792444    6.518e-03
	   5         9.781904589815    1.664e-03
	   6         9.781932242495    5.236e-04
	   7         9.781984132296    1.921e-04
	   8         9.781980999194    6.189e-05
	   9         9.781976606632    1.602e-05
	  10         9.781977500048    4.562e-06
	  11         9.781977998385    1.615e-06
	  12         9.781978251224    4.934e-07
	  13         9.781978152456    1.549e-07
	  14         9.781978109370    5.147e-08
	  15         9.781978094504    1.614e-08
	  16         9.781978094608    4.863e-09
	  17         9.781978094788    1.703e-09
	  18         9.781978094657    6.579e-10
	  19         9.781978094662    1.960e-10
	-----------------------------------------
	Converged P_Z-Perturbed Wfn to 6.891e-11

	Computing L_Z-Perturbed Wave Function (0.128 E_h).
	Iter   Pseudopolarizability       RMS 
	----   --------------------   -----------
	   0         4.306076610237
	   1         5.427542143419    3.475e-01
	   2         6.784160841539    2.603e-01
	   3         7.225526813839    1.323e-01
	   4         7.434835830686    6.019e-02
	   5         7.450406821669    2.621e-02
	   6         7.462308698648    1.252e-02
	   7         7.466061474225    4.987e-03
	   8         7.464335602474    2.351e-03
	   9         7.464570323166    9.851e-04
	  10         7.464580587497    5.391e-04
	  11         7.464536097714    2.304e-04
	  12         7.464350548212    9.836e-05
	  13         7.464331270579    3.332e-05
	  14         7.464350062044    1.192e-05
	  15         7.464356750274    4.310e-06
	  16         7.464358068014    1.778e-06
	  17         7.464357390839    5.880e-07
	  18         7.464357211204    2.086e-07
	  19         7.464357222307    8.619e-08
	  20         7.464357226500    3.107e-08
	  21         7.464357225291    1.465e-08
	  22         7.464357226480    6.353e-09
	  23         7.464357231122    2.983e-09
	  24         7.464357234839    1.428e-09
	  25         7.464357237859    8.524e-10
	  26         7.464357239571    3.889e-10
	  27         7.464357239745    1.262e-10
	-----------------------------------------
	Converged L_Z-Perturbed Wfn to 5.246e-11

	Computing 1/2 <<Mu;L>>_(0.128) tensor.
	Computing 1/2 <<P;L>>_(0.128) tensor.

	Computing Mu_X-Perturbed Wave Function (0.128 E_h).
	Iter   Pseudopolarizability       RMS 
	----   --------------------   -----------
	   0         4.194769250266
	   1         5.234145781640    3.287e-01
	   2         6.407097549025    2.124e-01
	   3         6.488759802182    7.102e-02
	   4         6.556272165274    3.544e-02
	   5         6.566960150429    1.658e-02
	   6         6.567840805665    8.008e-03
	   7         6.570224482897    4.762e-03
	   8         6.569439061284    2.617e-03
	   9         6.569607460560    1.435e-03
	  10         6.569715119968    5.714e-04
	  11         6.569657364749    1.584e-04
	  12         6.569580981243    7.027e-05
	  13         6.569558243035    3.206e-05
	  14         6.569576324391    1.541e-05
	  15         6.569587528017    5.994e-06
	  16         6.569590084799    2.428e-06
	  17         6.569589478235    1.218e-06
	  18         6.569588941414    4.639e-07
	  19         6.569588776504    2.247e-07
	  20         6.569588729791    1.105e-07
	  21         6.569588692236    5.894e-08
	  22         6.569588693093    1.625e-08
	  23         6.569588695356    5.960e-09
	  24         6.569588700770    2.617e-09
	  25         6.569588702867    1.038e-09
	  26         6.569588703861    4.120e-10
	  27         6.569588704141    1.624e-10
	-----------------------------------------
	Converged Mu_X-Perturbed Wfn to 4.529e-11

	Computing P*_X-Perturbed Wave Function (0.128 E_h).
	Iter   Pseudopolarizability       RMS 
	----   --------------------   -----------
	   0         8.567078016154
	   1         9.794811600721    2.555e-01
	   2        10.533472645707    1.469e-01
	   3        10.609568138185    6.924e-02
	   4        10.649172700311    3.372e-02
	   5        10.659558683633    1.729e-02
	   6        10.664568928119    9.710e-03
	   7        10.666738541381    5.260e-03
	   8        10.666626345168    2.726e-03
	   9        10.667123452805    1.240e-03
	  10        10.667283729526    5.306e-04
	  11        10.667179421133    1.373e-04
	  12        10.667093008437    4.910e-05
	  13        10.667075067940    2.031e-05
	  14        10.667078039528    1.099e-05
	  15        10.667080515663    4.814e-06
	  16        10.667080122415    2.178e-06
	  17        10.667078907676    1.228e-06
	  18        10.667078058636    7.815e-07
	  19        10.667077774199    3.625e-07
	  20        10.667077589801    1.451e-07
	  21        10.667077532286    5.020e-08
	  22        10.667077514782    1.653e-08
	  23        10.667077511630    8.860e-09
	  24        10.667077507727    4.099e-09
	  25        10.667077506000    1.654e-09
	  26        10.667077505455    5.493e-10
	  27        10.667077505466    1.993e-10
	-----------------------------------------
	Converged P*_X-Perturbed Wfn to 7.814e-11

	Computing L*_X-Perturbed Wave Function (-0.128 E_h).
	Iter   Pseudopolarizability       RMS 
	----   --------------------   -----------
	   0         4.196236822918
	   1         5.174523882784    2.469e-01
	   2         5.926983915035    1.286e-01
	   3         5.941306874533    2.623e-02
	   4         5.952209147435    9.565e-03
	   5         5.952557710944    2.698e-03
	   6         5.952729199281    1.070e-03
	   7         5.952897844254    3.838e-04
	   8         5.952863388456    1.241e-04
	   9         5.952860157371    3.217e-05
	  10         5.952860207590    9.417e-06
	  11         5.952862464734    2.575e-06
	  12         5.952862869979    6.419e-07
	  13         5.952862747270    1.705e-07
	  14         5.952862683344    6.011e-08
	  15         5.952862655947    2.073e-08
	  16         5.952862649615    6.519e-09
	  17         5.952862647592    2.077e-09
	  18         5.952862646531    6.831e-10
	  19         5.952862646350    1.963e-10
	-----------------------------------------
	Converged L*_X-Perturbed Wfn to 6.916e-11

	Computing Mu_Y-Perturbed Wave Function (0.128 E_h).
	Iter   Pseudopolarizability       RMS 
	----   --------------------   -----------
	   0         9.157202315451
	   1        12.069043235932    5.825e-01
	   2        15.999588842134    3.672e-01
	   3        16.135886374471    8.688e-02
	   4        16.292227174485    5.246e-02
	   5        16.319486280309    2.064e-02
	   6        16.319168913082    9.993e-03
	   7        16.322965099741    6.672e-03
	   8        16.324608341447    3.808e-03
	   9        16.323765749017    1.509e-03
	  10        16.323899578060    6.735e-04
	  11        16.324542216583    3.463e-04
	  12        16.324962676881    1.211e-04
	  13        16.324915559092    4.347e-05
	  14        16.324825235104    2.242e-05
	  15        16.324773505266    1.168e-05
	  16        16.324762200507    4.566e-06
	  17        16.324763616263    1.472e-06
	  18        16.324763053495    9.617e-07
	  19        16.324762984838    5.336e-07
	  20        16.324762864336    2.138e-07
	  21        16.324762915301    1.333e-07
	  22        16.324762879965    5.886e-08
	  23        16.324762845362    2.557e-08
	  24        16.324762837437    1.224e-08
	  25        16.324762838053    5.522e-09
	  26        16.324762838298    2.946e-09
	  27        16.324762837250    9.203e-10
	  28        16.324762837168    3.939e-10
	  29        16.324762837447    2.052e-10
	-----------------------------------------
	Converged Mu_Y-Perturbed Wfn to 6.624e-11

	Computing P*_Y-Perturbed Wave Function (0.128 E_h).
	Iter   Pseudopolarizability       RMS 
	----   --------------------   -----------
	   0         8.865002743143
	   1        10.590728226708    3.416e-01
	   2        11.937977881990    1.917e-01
	   3        12.025923523419    5.504e-02
	   4        12.062077081691    2.825e-02
	   5        12.068076880260    9.482e-03
	   6        12.068396916176    3.756e-03
	   7        12.069112310564    1.498e-03
	   8        12.069015257460    9.372e-04
	   9        12.068904327267    5.785e-04
	  10        12.069010911825    3.190e-04
	  11        12.069079955154    1.516e-04
	  12        12.069092780172    7.608e-05
	  13        12.069055286384    2.714e-05
	  14        12.069042713108    9.819e-06
	  15        12.069038870825    4.279e-06
	  16        12.069037572475    1.892e-06
	  17        12.069036427290    8.568e-07
	  18        12.069036340329    3.327e-07
	  19        12.069036486344    1.652e-07
	  20        12.069036548055    1.017e-07
	  21        12.069036554260    5.993e-08
	  22        12.069036529675    2.576e-08
	  23        12.069036521086    1.630e-08
	  24        12.069036520468    6.925e-09
	  25        12.069036522366    2.848e-09
	  26        12.069036523559    1.072e-09
	  27        12.069036524130    4.955e-10
	  28        12.069036524129    2.282e-10
	-----------------------------------------
	Converged P*_Y-Perturbed Wfn to 9.977e-11

	Computing L*_Y-Perturbed Wave Function (-0.128 E_h).
	Iter   Pseudopolarizability       RMS 
	----   --------------------   -----------
	   0         0.230584975278
	   1         0.300347827146    6.826e-02
	   2         0.357993907298    3.670e-02
	   3         0.359786597554    7.881e-03
	   4         0.360365714403    1.735e-03
	   5         0.360304352469    4.071e-04
	   6         0.360299387570    1.139e-04
	   7         0.360304970393    4.272e-05
	   8         0.360302996181    1.821e-05
	   9         0.360303646374    4.966e-06
	  10         0.360303788038    1.417e-06
	  11         0.360303725016    3.699e-07
	  12         0.360303648814    1.154e-07
	  13         0.360303640905    2.174e-08
	  14         0.360303643464    6.804e-09
	  15         0.360303644733    2.127e-09
	  16         0.360303645074    5.959e-10
	  17         0.360303645080    1.839e-10
	-----------------------------------------
	Converged L*_Y-Perturbed Wfn to 4.893e-11

	Computing Mu_Z-Perturbed Wave Function (0.128 E_h).
	Iter   Pseudopolarizability       RMS 
	----   --------------------   -----------
	   0         6.515692741927
	   1         8.318755856522    4.415e-01
	   2        10.402192896656    2.645e-01
	   3        10.443322294219    6.468e-02
	   4        10.509134848970    3.527e-02
	   5        10.520755102218    1.316e-02
	   6        10.520775717902    5.741e-03
	   7        10.521931953542    3.215e-03
	   8        10.521951539576    1.306e-03
	   9        10.521762674031    4.749e-04
	  10        10.521821044336    1.886e-04
	  11        10.521897812071    9.992e-05
	  12        10.521959939277    5.220e-05
	  13        10.521945818845    2.883e-05
	  14        10.521921074381    1.518e-05
	  15        10.521909054009    7.526e-06
	  16        10.521909272478    3.140e-06
	  17        10.521910567366    1.312e-06
	  18        10.521911102152    6.234e-07
	  19        10.521911265746    2.888e-07
	  20        10.521911272608    1.072e-07
	  21        10.521911229323    5.868e-08
	  22        10.521911204035    2.704e-08
	  23        10.521911188423    9.960e-09
	  24        10.521911182475    4.600e-09
	  25        10.521911180197    1.672e-09
	  26        10.521911179706    5.382e-10
	  27        10.521911179665    1.808e-10
	-----------------------------------------
	Converged Mu_Z-Perturbed Wfn to 8.207e-11

	Computing P*_Z-Perturbed Wave Function (0.128 E_h).
	Iter   Pseudopolarizability       RMS 
	----   --------------------   -----------
	   0         9.244833704971
	   1        10.697250348169    3.055e-01
	   2        11.752575610470    1.645e-01
	   3        11.789787747130    5.134e-02
	   4        11.812180438878    2.587e-02
	   5        11.818050742144    1.014e-02
	   6        11.819107781885    4.791e-03
	   7        11.819954624097    2.551e-03
	   8        11.819932477414    1.220e-03
	   9        11.819919495719    4.580e-04
	  10        11.819987275998    2.147e-04
	  11        11.820008619359    1.231e-04
	  12        11.819996853687    6.937e-05
	  13        11.819973908459    3.011e-05
	  14        11.819968640868    1.327e-05
	  15        11.819967290292    6.206e-06
	  16        11.819966440504    2.530e-06
	  17        11.819965350385    1.082e-06
	  18        11.819965067686    5.607e-07
	  19        11.819965055145    2.297e-07
	  20        11.819965055526    7.826e-08
	  21        11.819965006308    4.059e-08
	  22        11.819964981292    1.464e-08
	  23        11.819964972409    5.578e-09
	  24        11.819964969932    2.629e-09
	  25        11.819964969875    1.113e-09
	  26        11.819964969853    4.908e-10
	  27        11.819964969950    1.930e-10
	-----------------------------------------
	Converged P*_Z-Perturbed Wfn to 8.575e-11

	Computing L*_Z-Perturbed Wave Function (-0.128 E_h).
	Iter   Pseudopolarizability       RMS 
	----   --------------------   -----------
	   0         3.767770261761
	   1         4.563532503386    2.151e-01
	   2         5.153333965821    1.198e-01
	   3         5.184426329345    3.270e-02
	   4         5.197264548381    8.990e-03
	   5         5.196483105619    2.257e-03
	   6         5.196637504074    7.071e-04
	   7         5.196727123955    2.123e-04
	   8         5.196698616442    7.458e-05
	   9         5.196703143691    1.972e-05
	  10         5.196703863203    6.251e-06
	  11         5.196704270100    1.959e-06
	  12         5.196703850691    7.478e-07
	  13         5.196703818090    2.229e-07
	  14         5.196703906786    7.279e-08
	  15         5.196703946926    2.244e-08
	  16         5.196703958999    6.373e-09
	  17         5.196703961116    1.692e-09
	  18         5.196703961441    5.365e-10
	  19         5.196703961640    1.625e-10
	-----------------------------------------
	Converged L*_Z-Perturbed Wfn to 5.865e-11

	Computing 1/2 <<Mu;L*>>_(0.128) tensor.
	Computing 1/2 <<P*;L*>>_(0.128) tensor.
	Computing <<P;Mu>>_(0.128) tensor.

           CCSD Optical Rotation Tensor (Length Gauge):
  -------------------------------------------------------------------------
   Evaluated at omega = 0.128347 E_h (355.00 nm, 3.493 eV, 28169.01 cm-1)
  -------------------------------------------------------------------------

                   0                     1                     2        

    0      0.247980568634529    -0.130332714336036     0.000000000000000
    1     -0.485840586162693    -0.000172987701478     0.000000000000000
    2      0.000000000000000     0.000000000000000    -0.221409962770563

   Specific rotation using length-gauge electric-dipole Rosenfeld tensor.
	[alpha]_(0.128) = -214.73273 deg/[dm (g/cm^3)]

         CCSD Optical Rotation Tensor (Velocity Gauge):
  -------------------------------------------------------------------------
   Evaluated at omega = 0.128347 E_h (355.00 nm, 3.493 eV, 28169.01 cm-1)
  -------------------------------------------------------------------------

                   0                     1                     2        

    0      0.399349642666539    -0.398490095264482     0.000000000000000
    1     -0.184609678444966     0.013642793858624     0.000000000000000
    2      0.000000000000000     0.000000000000000    -0.419065221878491

   Specific rotation using velocity-gauge electric-dipole Rosenfeld tensor.
	[alpha]_(0.128) =  384.88776 deg/[dm (g/cm^3)]

        CCSD Optical Rotation Tensor (Modified Velocity Gauge):
  -------------------------------------------------------------------------
   Evaluated at omega = 0.128347 E_h (355.00 nm, 3.493 eV, 28169.01 cm-1)
  -------------------------------------------------------------------------

                   0                     1                     2        

    0      0.035646850206740    -0.035735208829790     0.000000000000000
    1     -0.068288755470338     0.001564304738917     0.000000000000000
    2      0.000000000000000     0.000000000000000    -0.027043020202826

   Specific rotation using modified velocity-gauge Rosenfeld tensor.
	[alpha]_(0.128) = -644.44739 deg/[dm (g/cm^3)]

   Origin-dependence vector for length-gauge rotation deg/[dm (g/cm^3)]/bohr.
     Delta_x =   0.00   Delta_y =   0.00   Delta_z = -72.34

   ------------------------------------------
       CCSD Length-Gauge Optical Rotation
   ------------------------------------------
       Omega           alpha                        Delta
    E_h      nm   deg/[dm (g/cm^3)]        deg/[dm (g/cm^3)]/bohr
   -----   ------ ------------------  ----------------------------------
                                          x           y           z      
   0.077   589.00       -76.93388       0.00000     0.00000   -19.64800
   0.128   355.00      -214.73273       0.00000     0.00000   -72.33678

   ------------------------------------------------------
            CCSD Velocity-Gauge Optical Rotation
   ------------------------------------------------------
       Omega           alpha (deg/[dm (g/cm^3)]

    E_h      nm   Velocity-Gauge  Modified Velocity-Gauge
   -----   ------ --------------  -----------------------
   0.077   589.00    850.24697          -179.08818
   0.128   355.00    384.88776          -644.44739
    CCSD rotation @ 589nm in length gauge.................................................PASSED
    CCSD rotation @ 589nm in velocity gauge...............................................PASSED
    CCSD rotation @ 589nm in modified velocity gauge......................................PASSED
    CCSD rotation @ 355nm in length gauge.................................................PASSED
    CCSD rotation @ 355nm in velocity gauge...............................................PASSED
    CCSD rotation @ 355nm in modified velocity gauge......................................PASSED
    CCSD rotation tensor @ 589nm in length gauge..........................................PASSED
    CCSD rotation tensor @ 589nm in length gauge..........................................PASSED
    CCSD rotation tensor @ 589nm in length gauge..........................................PASSED
    CCSD rotation tensor @ 589nm in length gauge..........................................PASSED
    CCSD rotation tensor @ 589nm in length gauge..........................................PASSED
    CCSD rotation tensor @ 589nm in length gauge..........................................PASSED

    Psi4 stopped on: Friday, 18 February 2022 02:08PM
    Psi4 wall time for execution: 0:00:30.18

*** Psi4 exiting successfully. Buy a developer a beer!
