
    -----------------------------------------------------------------------
          Psi4: An Open-Source Ab Initio Electronic Structure Package
                               Psi4 1.1rc3.dev5 

                         Git: Rev {master} 3fbd859 


    R. M. Parrish, L. A. Burns, D. G. A. Smith, A. C. Simmonett,
    A. E. DePrince III, E. G. Hohenstein, U. Bozkaya, A. Yu. Sokolov,
    R. Di Remigio, R. M. Richard, J. F. Gonthier, A. M. James,
    H. R. McAlexander, A. Kumar, M. Saitow, X. Wang, B. P. Pritchard,
    P. Verma, H. F. Schaefer III, K. Patkowski, R. A. King, E. F. Valeev,
    F. A. Evangelista, J. M. Turney, T. D. Crawford, and C. D. Sherrill,
    J. Chem. Theory Comput. in press (2017).
    (doi: 10.1021/acs.jctc.7b00174)

    -----------------------------------------------------------------------


    Psi4 started on: Monday, 15 May 2017 03:34PM

    Process ID:  12617
    PSIDATADIR: /home/psilocaluser/gits/hrw-direct/objdir4/stage/usr/local/psi4/share/psi4
    Memory:     500.0 MiB
    Threads:    1
    
  ==> Input File <==

--------------------------------------------------------------------------
#! ROHF-EOM-CCSD/DZ analytic gradient lowest $^{2}B@@1$ state of H2O+ (A1 excitation)

molecule h2o {
  1 2
  H -0.107055195862289   0.000000000000000  -1.832806614599657
  O -0.107055195862289   0.000000000000000   0.094714436481352
  H  1.806098405595803   0.000000000000000   0.329620161376194
  units bohr
}

set {
  reference rohf
  basis DZ
  roots_per_irrep [0, 0, 1, 0]
}

analytic_grad = gradient('eom-ccsd')
findif_grad = gradient('eom-ccsd', dertype=0)

compare_matrices(analytic_grad, findif_grad, 5, "UHF-EOM-CCSD finite-diff. (3-pt.) vs. analytic gradient to 10^-5") #TEST

set findif points 5

findif_grad = gradient('eom-ccsd', dertype=0)

compare_matrices(analytic_grad, findif_grad, 6, "UHF-EOM-CCSD finite-diff. (5-pt.) vs. analytic gradient to 10^-7") #TEST

--------------------------------------------------------------------------
gradient() will perform analytic gradient computation.

*** tstart() called on psinet
*** at Mon May 15 15:34:21 2017

   => Loading Basis Set <=

    Name: DZ
    Role: ORBITAL
    Keyword: BASIS
    atoms 1, 3 entry H          line    11 file /home/psilocaluser/gits/hrw-direct/objdir4/stage/usr/local/psi4/share/psi4/basis/dz.gbs 
    atoms 2    entry O          line   106 file /home/psilocaluser/gits/hrw-direct/objdir4/stage/usr/local/psi4/share/psi4/basis/dz.gbs 


         ---------------------------------------------------------
                                   SCF
            by Justin Turney, Rob Parrish, and Andy Simmonett
                             ROHF Reference
                        1 Threads,    500 MiB Core
         ---------------------------------------------------------

  ==> Geometry <==

    Molecular point group: c2v
    Full point group: C2v

    Geometry (in Bohr), charge = 1, multiplicity = 2:

       Center              X                  Y                   Z               Mass       
    ------------   -----------------  -----------------  -----------------  -----------------
           H          0.000000000000    -1.443627918148     1.134274838578     1.007825032070
           O          0.000000000000     0.000000000000    -0.142939253226    15.994914619560
           H         -0.000000000000     1.443627918148     1.134274838578     1.007825032070

  Running in c2v symmetry.

  Rotational constants: A =     20.61565  B =     14.33074  C =      8.45402 [cm^-1]
  Rotational constants: A = 618041.72688  B = 429624.71072  C = 253445.16976 [MHz]
  Nuclear repulsion =    8.647166888151858

  Charge       = 1
  Multiplicity = 2
  Electrons    = 9
  Nalpha       = 5
  Nbeta        = 4

  ==> Algorithm <==

  SCF Algorithm Type is PK.
  DIIS enabled.
  MOM disabled.
  Fractional occupation disabled.
  Guess Type is GWH.
  Energy threshold   = 1.00e-10
  Density threshold  = 1.00e-10
  Integral threshold = 0.00e+00

  ==> Primary Basis <==

  Basis Set: DZ
    Blend: DZ
    Number of shells: 10
    Number of basis function: 14
    Number of Cartesian functions: 14
    Spherical Harmonics?: false
    Max angular momentum: 1

  ==> Pre-Iterations <==

   -------------------------------------------------------
    Irrep   Nso     Nmo     Nalpha   Nbeta   Ndocc  Nsocc
   -------------------------------------------------------
     A1         8       8       0       0       0       0
     A2         0       0       0       0       0       0
     B1         2       2       0       0       0       0
     B2         4       4       0       0       0       0
   -------------------------------------------------------
    Total      14      14       5       4       4       1
   -------------------------------------------------------

  ==> Integral Setup <==

  Using in-core PK algorithm.
   Calculation information:
      Number of atoms:                   3
      Number of AO shells:              10
      Number of primitives:             22
      Number of atomic orbitals:        14
      Number of basis functions:        14

      Integral cutoff                 1.00e-12
      Number of threads:                 1

  Performing in-core PK
  Using 11130 doubles for integral storage.
  We computed 1540 shell quartets total.
  Whereas there are 1540 unique shell quartets.
  ==> DiskJK: Disk-Based J/K Matrices <==

    J tasked:                  Yes
    K tasked:                  Yes
    wK tasked:                  No
    Memory (MB):               375
    Schwarz Cutoff:          1E-12

    OpenMP threads:              1
  Minimum eigenvalue in the overlap matrix is 6.0756533921E-02.
  Using Symmetric Orthogonalization.

  SCF Guess: Generalized Wolfsberg-Helmholtz.

  ==> Iterations <==

                        Total Energy        Delta E     RMS |[F,P]|

   @ROHF iter   1:   -75.16982263377545   -7.51698e+01   1.92698e-01 
   @ROHF iter   2:   -75.55643165414826   -3.86609e-01   2.64915e-02 DIIS
   @ROHF iter   3:   -75.58961723935936   -3.31856e-02   9.89439e-03 DIIS
   @ROHF iter   4:   -75.59639478423604   -6.77754e-03   1.60717e-03 DIIS
   @ROHF iter   5:   -75.59666512181171   -2.70338e-04   1.84434e-04 DIIS
   @ROHF iter   6:   -75.59667159430882   -6.47250e-06   4.78215e-05 DIIS
   @ROHF iter   7:   -75.59667210359774   -5.09289e-07   7.66843e-06 DIIS
   @ROHF iter   8:   -75.59667211495869   -1.13610e-08   5.59658e-07 DIIS
   @ROHF iter   9:   -75.59667211502345   -6.47589e-11   4.33755e-08 DIIS
   @ROHF iter  10:   -75.59667211502368   -2.27374e-13   4.84752e-09 DIIS
   @ROHF iter  11:   -75.59667211502365    2.84217e-14   2.36743e-10 DIIS
   @ROHF iter  12:   -75.59667211502368   -2.84217e-14   3.67102e-11 DIIS

  ==> Post-Iterations <==

    Orbital Energies (a.u.)
    -----------------------

    Doubly Occupied:                                                      

       1A1   -21.104066     2A1    -1.813380     1B2    -1.147058  
       3A1    -1.051937  

    Singly Occupied:                                                      

       1B1    -0.690072  

    Virtual:                                                              

       4A1    -0.141833     2B2    -0.064208     2B1     0.460457  
       5A1     0.502093     3B2     0.545323     4B2     0.756617  
       6A1     0.782858     7A1     1.244045     8A1    42.782181  

    Final Occupation by Irrep:
             A1    A2    B1    B2 
    DOCC [     3,    0,    0,    1 ]
    SOCC [     0,    0,    1,    0 ]

  Energy converged.

  @ROHF Final Energy:   -75.59667211502368

   => Energetics <=

    Nuclear Repulsion Energy =              8.6471668881518582
    One-Electron Energy =                -117.1401097889370533
    Two-Electron Energy =                  32.8962707857615158
    DFT Exchange-Correlation Energy =       0.0000000000000000
    Empirical Dispersion Energy =           0.0000000000000000
    PCM Polarization Energy =               0.0000000000000000
    EFP Energy =                            0.0000000000000000
    Total Energy =                        -75.5966721150236793



Properties will be evaluated at   0.000000,   0.000000,   0.000000 Bohr

Properties computed using the SCF density matrix

  Nuclear Dipole Moment: (a.u.)
     X:     0.0000      Y:     0.0000      Z:     1.1250

  Electronic Dipole Moment: (a.u.)
     X:     0.0000      Y:     0.0000      Z:     0.2139

  Dipole Moment: (a.u.)
     X:     0.0000      Y:     0.0000      Z:     1.3389     Total:     1.3389

  Dipole Moment: (Debye)
     X:     0.0000      Y:     0.0000      Z:     3.4031     Total:     3.4031


*** tstop() called on psinet at Mon May 15 15:34:21 2017
Module time:
	user time   =       0.15 seconds =       0.00 minutes
	system time =       0.01 seconds =       0.00 minutes
	total time  =          0 seconds =       0.00 minutes
Total time:
	user time   =       0.15 seconds =       0.00 minutes
	system time =       0.01 seconds =       0.00 minutes
	total time  =          0 seconds =       0.00 minutes
 MINTS: Wrapper to libmints.
   by Justin Turney

   Calculation information:
      Number of threads:                 1
      Number of atoms:                   3
      Number of AO shells:              10
      Number of SO shells:               8
      Number of primitives:             22
      Number of atomic orbitals:        14
      Number of basis functions:        14

      Number of irreps:                  4
      Integral cutoff                 0.00e+00
      Number of functions per irrep: [   8    0    2    4 ]

 OEINTS: Overlap, kinetic, potential, dipole, and quadrupole integrals
         stored in file 35.

      Computing two-electron integrals...done
      Computed 1709 non-zero two-electron integrals.
        Stored in file 33.


*** tstart() called on psinet
*** at Mon May 15 15:34:22 2017


	Wfn Parameters:
	--------------------
	Wavefunction         = CCSD
	Number of irreps     = 4
	Number of MOs        = 14
	Number of active MOs = 14
	AO-Basis             = NONE
	Semicanonical        = false
	Reference            = ROHF
	Print Level          = 1

	IRREP	# MOs	# FZDC	# DOCC	# SOCC	# VIRT	# FZVR
	-----	-----	------	------	------	------	------
	 A1	   8	    0	    3	    0	    5	    0
	 A2	   0	    0	    0	    0	    0	    0
	 B1	   2	    0	    0	    1	    1	    0
	 B2	   4	    0	    1	    0	    3	    0
	Transforming integrals...
	IWL integrals will be deleted.
	(OO|OO)...
	Presorting SO-basis two-electron integrals.
	Sorting File: SO Ints (nn|nn) nbuckets = 1
	Transforming the one-electron integrals and constructing Fock matrices
	Starting first half-transformation.
	Sorting half-transformed integrals.
	First half integral transformation complete.
	Starting second half-transformation.
	Two-electron integral transformation complete.
	(OO|OV)...
	Starting second half-transformation.
	Two-electron integral transformation complete.
	(OO|VV)...
	Starting second half-transformation.
	Two-electron integral transformation complete.
	(OV|OO)...
	Starting first half-transformation.
	Sorting half-transformed integrals.
	First half integral transformation complete.
	Starting second half-transformation.
	Two-electron integral transformation complete.
	(OV|OV)...
	Starting second half-transformation.
	Two-electron integral transformation complete.
	(OV|VV)...
	Starting second half-transformation.
	Two-electron integral transformation complete.
	(VV|OO)...
	Starting first half-transformation.
	Sorting half-transformed integrals.
	First half integral transformation complete.
	Starting second half-transformation.
	Two-electron integral transformation complete.
	(VV|OV)...
	Starting second half-transformation.
	Two-electron integral transformation complete.
	(VV|VV)...
	Starting second half-transformation.
	Two-electron integral transformation complete.
	Frozen core energy     =      0.00000000000000

	Size of irrep 0 of <ab|cd> integrals:      0.001 (MW) /      0.012 (MB)
	Size of irrep 1 of <ab|cd> integrals:      0.000 (MW) /      0.001 (MB)
	Size of irrep 2 of <ab|cd> integrals:      0.000 (MW) /      0.003 (MB)
	Size of irrep 3 of <ab|cd> integrals:      0.001 (MW) /      0.007 (MB)
	Total:                                     0.003 (MW) /      0.023 (MB)

	Size of irrep 0 of <ia|bc> integrals:      0.001 (MW) /      0.006 (MB)
	Size of irrep 1 of <ia|bc> integrals:      0.000 (MW) /      0.000 (MB)
	Size of irrep 2 of <ia|bc> integrals:      0.000 (MW) /      0.002 (MB)
	Size of irrep 3 of <ia|bc> integrals:      0.000 (MW) /      0.003 (MB)
	Total:                                     0.001 (MW) /      0.012 (MB)

	Size of irrep 0 of tIjAb amplitudes:       0.000 (MW) /      0.003 (MB)
	Size of irrep 1 of tIjAb amplitudes:       0.000 (MW) /      0.000 (MB)
	Size of irrep 2 of tIjAb amplitudes:       0.000 (MW) /      0.001 (MB)
	Size of irrep 3 of tIjAb amplitudes:       0.000 (MW) /      0.001 (MB)
	Total:                                     0.001 (MW) /      0.006 (MB)

	Nuclear Rep. energy          =      8.64716688815186
	SCF energy                   =    -75.59667211502368
	One-electron energy          =   -117.14010978974409
	Two-electron (AA) energy     =      7.70651836116918
	Two-electron (BB) energy     =      4.66759374158320
	Two-electron (AB) energy     =     20.52215868381612
	Two-electron energy          =    -84.24383900317558
	Reference energy             =    -75.59667211502372

*** tstop() called on psinet at Mon May 15 15:34:22 2017
Module time:
	user time   =       0.01 seconds =       0.00 minutes
	system time =       0.04 seconds =       0.00 minutes
	total time  =          0 seconds =       0.00 minutes
Total time:
	user time   =       0.19 seconds =       0.00 minutes
	system time =       0.06 seconds =       0.00 minutes
	total time  =          1 seconds =       0.02 minutes

*** tstart() called on psinet
*** at Mon May 15 15:34:22 2017

            **************************
            *                        *
            *        CCENERGY        *
            *                        *
            **************************

    Nuclear Rep. energy (wfn)     =    8.647166888151858
    SCF energy          (wfn)     =  -75.596672115023679
    Reference energy    (file100) =  -75.596672115023722

    Input parameters:
    -----------------
    Wave function   =     CCSD
    Reference wfn   =     ROHF
    Brueckner       =     No
    Memory (Mbytes) =     524.3
    Maxiter         =     50
    R_Convergence   =     1.0e-07
    E_Convergence   =     1.0e-08
    Restart         =     Yes
    DIIS            =     Yes
    AO Basis        =     NONE
    ABCD            =     NEW
    Cache Level     =     2
    Cache Type      =     LOW
    Print Level     =     1
    Num. of threads =     1
    # Amps to Print =     10
    Print MP2 Amps? =     No
    Analyze T2 Amps =     No
    Print Pair Ener =     No
    Local CC        =     No
    SCS-MP2         =     False
    SCSN-MP2        =     False
    SCS-CCSD        =     False

                Solving CC Amplitude Equations
                ------------------------------
  Iter             Energy              RMS        T1Diag      D1Diag    New D1Diag    D2Diag
  ----     ---------------------    ---------   ----------  ----------  ----------   --------
     0        -0.103569696093121    0.000e+00    0.000154    0.000452    0.000452    0.000000
     1        -0.111771016405890    4.000e-02    0.006340    0.011853    0.011853    0.000000
     2        -0.116057760802869    1.502e-02    0.007707    0.014629    0.014629    0.000000
     3        -0.117014007689843    5.657e-03    0.008317    0.016143    0.016143    0.000000
     4        -0.117097862167036    2.369e-03    0.008264    0.016162    0.016162    0.000000
     5        -0.117126152899105    8.858e-04    0.008258    0.016134    0.016134    0.000000
     6        -0.117137544902791    2.853e-04    0.008258    0.016130    0.016130    0.000000
     7        -0.117138549118022    9.235e-05    0.008258    0.016134    0.016134    0.000000
     8        -0.117139118981141    2.776e-05    0.008259    0.016137    0.016137    0.000000
     9        -0.117139054337293    8.950e-06    0.008259    0.016137    0.016137    0.000000
    10        -0.117139022770125    3.122e-06    0.008259    0.016137    0.016137    0.000000
    11        -0.117139010251679    8.247e-07    0.008259    0.016136    0.016136    0.000000
    12        -0.117138986213487    2.241e-07    0.008259    0.016136    0.016136    0.000000
    13        -0.117138980005656    5.580e-08    0.008259    0.016136    0.016136    0.000000
    14        -0.117138979040642    1.787e-08    0.008259    0.016136    0.016136    0.000000

    Iterations converged.


    Largest TIA Amplitudes:
              3   5        -0.0113988848
              1   0        -0.0102859076
              1   2        -0.0095030343
              2   0         0.0083153220
              4   8         0.0070960670
              4   9        -0.0070682586
              1   3         0.0034872585
              2   1         0.0031202484
              1   1         0.0027264724
              2   3         0.0024621913

    Largest Tia Amplitudes:
              4   7         0.0321062803
              1   0         0.0209978078
              2   0         0.0171924939
              2   1        -0.0168047579
              1   2         0.0147755332
              4   9         0.0101495573
              2   3         0.0063791864
              1   1         0.0051303908
              4   8         0.0039696056
              2   2         0.0020776834

    Largest TIJAB Amplitudes:
      3   2   5   1        -0.0233338250
      4   3   7   5         0.0195343683
      4   2   7   1         0.0177278252
      4   3   9   5         0.0147067252
      4   2   9   1         0.0134723401
      4   3   8   5        -0.0129131579
      3   2   5   0         0.0120955320
      4   2   8   1        -0.0113112142
      3   1   5   0         0.0111375519
      3   1   5   3        -0.0100753958

    Largest Tijab Amplitudes:
      4   2   7   1         0.0181308353
      4   2   9   1         0.0130073224
      4   2   8   1        -0.0108998964
      2   1   1   0         0.0091928002
      4   2   7   0        -0.0090597008
      2   1   3   1         0.0084860037
      4   1   8   0         0.0073286524
      4   1   7   0        -0.0071186237
      4   1   7   3         0.0064364904
      4   2   8   0         0.0062958856

    Largest TIjAb Amplitudes:
      4   4   7   7        -0.0526325757
      2   2   1   1        -0.0435528180
      4   4   9   7        -0.0352987205
      4   4   7   9        -0.0347954472
      3   4   7   6         0.0323853217
      3   2   5   1        -0.0313728251
      3   1   0   6         0.0301770089
      4   4   9   9        -0.0299912931
      2   4   1   7         0.0271711001
      4   2   7   1         0.0268068245

    SCF energy       (wfn)                    =  -75.596672115023679
    Reference energy (file100)                =  -75.596672115023722

    Opposite-spin CCSD correlation energy     =   -0.099142117750079
    Same-spin CCSD correlation energy         =   -0.016303560975143
    CCSD correlation energy                   =   -0.117138979040642
      * CCSD total energy                     =  -75.713811094064368


*** tstop() called on psinet at Mon May 15 15:34:22 2017
Module time:
	user time   =       0.15 seconds =       0.00 minutes
	system time =       0.28 seconds =       0.00 minutes
	total time  =          0 seconds =       0.00 minutes
Total time:
	user time   =       0.34 seconds =       0.01 minutes
	system time =       0.34 seconds =       0.01 minutes
	total time  =          1 seconds =       0.02 minutes

*** tstart() called on psinet
*** at Mon May 15 15:34:22 2017


			**************************
			*                        *
			*         CCHBAR         *
			*                        *
			**************************


*** tstop() called on psinet at Mon May 15 15:34:22 2017
Module time:
	user time   =       0.02 seconds =       0.00 minutes
	system time =       0.02 seconds =       0.00 minutes
	total time  =          0 seconds =       0.00 minutes
Total time:
	user time   =       0.36 seconds =       0.01 minutes
	system time =       0.36 seconds =       0.01 minutes
	total time  =          1 seconds =       0.02 minutes

*** tstart() called on psinet
*** at Mon May 15 15:34:22 2017


	**********************************************************
	*  CCEOM: An Equation of Motion Coupled Cluster Program  *
	**********************************************************

	Nuclear Rep. energy (wfn)     =    8.647166888151858
	SCF energy          (wfn)     =  -75.596672115023679
	Reference energy    (file100) =  -75.596672115023722
	CCSD energy         (file100) =   -0.117138979040642

	Input parameters:
	-----------------
	Reference wfn   =    ROHF
	Reference EOM wfn=    ROHF
	Memory (Mbytes) =  524.3
	ABCD            =     NEW
	Cache Level     =    2
	Cache Type      =     LRU
	Num. of threads =     1
	Local CC        =     No


	CCEOM parameters:
	-----------------
	States sought per irrep     = A1 0, A2 0, B1 1, B2 0,
	Max. number of iterations   =    80
	Vectors stored per root     =    12
	Print HbarSS iterations?    =     0
	Excitation range for HBarSS =     2
	Eigenvalue tolerance        = 1.0e-08
	Eigenvalue toleranceSS      = 1.0e-06
	Residual vector tolerance   = 1.0e-06
	Residual vector toleranceSS = 1.0e-06
	Complex tolerance           = 1.0e-12
	Root for properties         =     1
	Sym of state for properties =     A1
	Guess vectors taken from    = SINGLES
	Restart EOM CC3             = NO
	Collapse with last vector   = YES


Symmetry of ground state: B1
Symmetry of excited state: B1
Symmetry of right eigenvector: A1
Obtaining initial guess from singles-singles block of Hbar...Done.

Iter=1    L=1     Root    EOM Energy     Delta E   Res. Norm    Conv?
                     1   0.5244675723   5.24e-01    3.36e-01      N
Iter=2    L=2     Root    EOM Energy     Delta E   Res. Norm    Conv?
                     1   0.4678544008  -5.66e-02    8.11e-02      N
Iter=3    L=3     Root    EOM Energy     Delta E   Res. Norm    Conv?
                     1   0.4601005033  -7.75e-03    7.00e-02      N
Iter=4    L=4     Root    EOM Energy     Delta E   Res. Norm    Conv?
                     1   0.4543023169  -5.80e-03    6.33e-02      N
Iter=5    L=5     Root    EOM Energy     Delta E   Res. Norm    Conv?
                     1   0.4521270040  -2.18e-03    3.46e-02      N
Iter=6    L=6     Root    EOM Energy     Delta E   Res. Norm    Conv?
                     1   0.4513061591  -8.21e-04    2.32e-02      N
Iter=7    L=7     Root    EOM Energy     Delta E   Res. Norm    Conv?
                     1   0.4507472496  -5.59e-04    2.02e-02      N
Iter=8    L=8     Root    EOM Energy     Delta E   Res. Norm    Conv?
                     1   0.4505471166  -2.00e-04    1.10e-02      N
Iter=9    L=9     Root    EOM Energy     Delta E   Res. Norm    Conv?
                     1   0.4505040340  -4.31e-05    5.19e-03      N
Iter=10   L=10    Root    EOM Energy     Delta E   Res. Norm    Conv?
                     1   0.4504775056  -2.65e-05    4.28e-03      N
Iter=11   L=11    Root    EOM Energy     Delta E   Res. Norm    Conv?
                     1   0.4504674417  -1.01e-05    2.08e-03      N
Iter=12   L=12    Root    EOM Energy     Delta E   Res. Norm    Conv?
                     1   0.4504643606  -3.08e-06    7.76e-04      N
Iter=13   L=2     Root    EOM Energy     Delta E   Res. Norm    Conv?
                     1   0.4504643606  -4.44e-16    7.76e-04      N
Iter=14   L=3     Root    EOM Energy     Delta E   Res. Norm    Conv?
                     1   0.4504643404  -2.02e-08    6.28e-04      N
Iter=15   L=4     Root    EOM Energy     Delta E   Res. Norm    Conv?
                     1   0.4504628691  -1.47e-06    4.08e-04      N
Iter=16   L=5     Root    EOM Energy     Delta E   Res. Norm    Conv?
                     1   0.4504625572  -3.12e-07    1.58e-04      N
Iter=17   L=6     Root    EOM Energy     Delta E   Res. Norm    Conv?
                     1   0.4504621620  -3.95e-07    6.79e-05      N
Iter=18   L=7     Root    EOM Energy     Delta E   Res. Norm    Conv?
                     1   0.4504621514  -1.06e-08    2.96e-05      N
Iter=19   L=8     Root    EOM Energy     Delta E   Res. Norm    Conv?
                     1   0.4504621642   1.28e-08    1.04e-05      N
Iter=20   L=9     Root    EOM Energy     Delta E   Res. Norm    Conv?
                     1   0.4504621591  -5.06e-09    4.43e-06      N
Iter=21   L=10    Root    EOM Energy     Delta E   Res. Norm    Conv?
                     1   0.4504621553  -3.82e-09    3.44e-06      N
Iter=22   L=11    Root    EOM Energy     Delta E   Res. Norm    Conv?
                     1   0.4504621551  -2.65e-10    3.55e-06      N
Iter=23   L=12    Root    EOM Energy     Delta E   Res. Norm    Conv?
                     1   0.4504621487  -6.38e-09    1.29e-06      N
Iter=24   L=2     Root    EOM Energy     Delta E   Res. Norm    Conv?
                     1   0.4504621487  -1.68e-14    1.29e-06      N
Iter=25   L=3     Root    EOM Energy     Delta E   Res. Norm    Conv?
                     1   0.4504621484  -2.60e-10    3.39e-07      Y
Collapsing to only 1 vector(s).

Procedure converged for 1 root(s).
Energy written to CC_INFO:Etot  -75.2633489456
States per irrep written to CC_INFO.
<R|R> =   1.0000000000000002
EOM CCSD R0 for root 0 =  -0.00779842391

Final Energetic Summary for Converged Roots of Irrep B1
                     Excitation Energy              Total Energy
                (eV)     (cm^-1)     (au)             (au)
EOM State 1     12.258    98865.0   0.4504621484   -75.263348945649

Largest components of excited wave function #1:
 RIA (libdpd indices) : (cscf notation)
         2 >   0      :       3a1 >    4a1 :   -0.5428262375
         0 >   0      :       1b2 >    2b2 :   -0.1260840215
         2 >   2      :       3a1 >    6a1 :   -0.0659296149
         2 >   1      :       3a1 >    5a1 :    0.0578295554
         1 >   0      :       2a1 >    4a1 :   -0.0360528707
 Ria (libdpd indices) : (cscf notation)
         2 >   0      :       3a1 >    4a1 :    0.7132566622
         0 >   0      :       1b2 >    2b2 :    0.1118780319
         2 >   2      :       3a1 >    6a1 :    0.0736572618
         2 >   1      :       3a1 >    5a1 :   -0.0574293155
         0 >   2      :       1b2 >    4b2 :    0.0297283713
 RIjAb (libdpd indices)     : (cscf notation)
        0   2 >   0   1     :    1b1    3a1 >    4a1    1b1 :   -0.3213266193
        0   0 >   0   1     :    1b1    1b2 >    2b2    1b1 :   -0.0848219249
        0   2 >   0   0     :    1b2    3a1 >    2b2    4a1 :   -0.0696519044
        2   2 >   1   0     :    3a1    3a1 >    5a1    4a1 :    0.0553123805
        2   0 >   0   0     :    3a1    1b2 >    4a1    2b2 :    0.0541333422
 RIJAB (libdpd indices)     : (cscf notation)
        0   2 >   0   0     :    1b1    3a1 >    2b1    4a1 :   -0.0281860714
        0   2 >   0   0     :    1b2    3a1 >    2b2    4a1 :    0.0278311821
        0   2 >   2   0     :    1b2    3a1 >    4b2    4a1 :    0.0165596337
        2   1 >   2   0     :    3a1    2a1 >    6a1    4a1 :   -0.0109583464
        0   2 >   0   2     :    1b2    3a1 >    2b2    6a1 :   -0.0097451755
 Rijab (libdpd indices)     : (cscf notation)
        0   2 >   0   0     :    1b2    3a1 >    2b2    4a1 :   -0.0376311578
        0   2 >   2   0     :    1b2    3a1 >    4b2    4a1 :   -0.0224932101
        2   1 >   1   0     :    3a1    2a1 >    1b1    2b1 :   -0.0163404664
        2   1 >   2   0     :    3a1    2a1 >    6a1    4a1 :    0.0154078869
        0   2 >   0   2     :    1b2    3a1 >    2b2    6a1 :    0.0140777716

	Putting into environment energy for root of R irrep 1 and root 1.
	Putting into environment CURRENT ENERGY:              -75.2633489456

	Total # of sigma evaluations: 23

*** tstop() called on psinet at Mon May 15 15:34:22 2017
Module time:
	user time   =       0.15 seconds =       0.00 minutes
	system time =       0.14 seconds =       0.00 minutes
	total time  =          0 seconds =       0.00 minutes
Total time:
	user time   =       0.51 seconds =       0.01 minutes
	system time =       0.50 seconds =       0.01 minutes
	total time  =          1 seconds =       0.02 minutes

*** tstart() called on psinet
*** at Mon May 15 15:34:22 2017


			**************************
			*        CCLAMBDA        *
			**************************


	Nuclear Rep. energy (wfn)     =    8.647166888151858
	Reference           (wfn)     =                    1
	SCF energy          (wfn)     =  -75.596672115023679
	Reference energy    (CC_INFO) =  -75.596672115023722
	CCSD energy         (CC_INFO) =   -0.117138979040642
	Total CCSD energy   (CC_INFO) =  -75.713811094064368

	Input parameters:
	-----------------
	Maxiter           =     50
	Convergence       = 1.0e-07
	Restart           =     No
	Cache Level       =     2
	Model III         =     No
	DIIS              =     Yes
	AO Basis          =     No
	ABCD              =     NEW
	Local CC          =     No
	Paramaters for left-handed eigenvectors:
	    Irr   Root  Ground-State?    EOM energy        R0
	  1   0     1         No       0.4504621484  -0.0077984239
	Labels for eigenvector 1:
	LIA 0 0, Lia 0 0, LIJAB 0 0, Lijab 0 0, LIjAb 0 0, 2LIjAb - LIjbA 0 0
	Deleting old CC_LAMBDA data.
	Symmetry of left-hand state: B1
	Symmetry of left-hand eigenvector: A1
	Initial overlap of initial guess <L|R> =    0.9998894034
	Checking overlap of initial guess <L|R> =    1.0000000000

	          Solving Lambda Equations
	          ------------------------
	Iter     PseudoEnergy or Norm         RMS  
	----     ---------------------     --------
	   0         0.004888300973848    0.000e+00
	   1         0.001961537556414    3.482e-02
	   2         0.001416940401990    9.649e-03
	   3         0.000951877375778    4.971e-03
	   4         0.000876643452655    1.830e-03
	   5         0.000870119529702    9.719e-04
	   6         0.000886741436006    7.319e-04
	   7         0.000906143260452    5.331e-04
	   8         0.000920404629311    2.776e-04
	   9         0.000928144641212    1.720e-04
	  10         0.000941620213040    1.170e-04
	  11         0.000952650149559    6.296e-05
	  12         0.000955615241320    2.602e-05
	  13         0.000956395975376    1.526e-05
	  14         0.000956911710817    9.498e-06
	  15         0.000957009308678    4.871e-06
	  16         0.000957215562160    2.678e-06
	  17         0.000957282890199    1.651e-06
	  18         0.000957386383553    1.002e-06
	  19         0.000957409519693    2.884e-07
	  20         0.000957412109894    1.129e-07
	  21         0.000957412556458    5.002e-08

	Initial  <L|R>  =        0.9867899310
	Normalizing L...
	L0 * R0 =       -0.0000000000
	L1 * R1 =        0.8467933588
	L2 * R2 =        0.1532066412
	 <L|R>  =        1.0000000000
	Pseudoenergy or Norm of normalized L =    0.000970229353133

	Largest LIA Amplitudes:
	          2   0        -0.5526567950
	          4   7        -0.1248478377
	          2   2        -0.0655337983
	          2   1         0.0580717612
	          1   0        -0.0355850434
	          4   9        -0.0353698489
	          2   3         0.0261876012
	          1   2        -0.0192806573
	          1   1         0.0181767511
	          1   3         0.0059267298

	Largest Lia Amplitudes:
	          2   0         0.6948937250
	          4   7         0.1123447984
	          2   2         0.0709179178
	          2   1        -0.0576016553
	          4   9         0.0301583414
	          2   3        -0.0277137298
	          1   1        -0.0186888030
	          1   0         0.0177316516
	          1   2         0.0169132730
	          1   3        -0.0040298401

	Largest LIJAB Amplitudes:
	  4   2   7   0         0.0489011874
	  3   2   5   0        -0.0350484358
	  4   2   9   0         0.0288351772
	  2   1   2   0        -0.0195253414
	  2   1   3   0         0.0130899954
	  4   2   7   1        -0.0082033175
	  4   2   8   0        -0.0078506356
	  4   2   7   2        -0.0078214988
	  4   2   8   1        -0.0072721784
	  4   3   7   5        -0.0065705511

	Largest Lijab Amplitudes:
	  4   2   7   0        -0.0368479359
	  4   2   9   0        -0.0223905123
	  2   1   6   5        -0.0161650557
	  4   2   7   2         0.0151870127
	  2   1   3   0        -0.0130678549
	  2   1   2   0         0.0105819275
	  2   1   1   0        -0.0104372764
	  4   2   8   1         0.0097064864
	  4   1   9   0         0.0082260919
	  4   1   7   0         0.0078120042

	Largest LIjAb Amplitudes:
	  3   2   0   6        -0.3369869578
	  4   2   7   0        -0.0862628479
	  3   4   7   6        -0.0814415470
	  2   2   1   0         0.0654739758
	  2   2   0   1        -0.0494008679
	  2   4   0   7         0.0485150733
	  3   2   2   6        -0.0475875266
	  4   2   9   0        -0.0470803279
	  3   2   5   0         0.0443886695
	  3   2   1   6         0.0388528253

	Iterations converged.


*** tstop() called on psinet at Mon May 15 15:34:23 2017
Module time:
	user time   =       0.07 seconds =       0.00 minutes
	system time =       0.06 seconds =       0.00 minutes
	total time  =          1 seconds =       0.02 minutes
Total time:
	user time   =       0.58 seconds =       0.01 minutes
	system time =       0.56 seconds =       0.01 minutes
	total time  =          2 seconds =       0.03 minutes

*** tstart() called on psinet
*** at Mon May 15 15:34:23 2017


			**************************
			*                        *
			*        CCDENSITY       *
			*                        *
			**************************


	Input parameters:
	-----------------
	Wave function    = EOM_CCSD
	Reference wfn    =  ROHF
	Dertype          = 1
	Tolerance        = 1.0e-14
	Cache Level      = 2
	AO Basis         = No
	OPDM Only        = No
	Relax OPDM       = Yes
	Compute Xi       = Yes
	Use Zeta         = No
	Xi connected     = Yes
	Compute NO       = No

	Nuclear Rep. energy (wfn)     =    8.647166888151858
	SCF energy          (wfn)     =  -75.596672115023679
	Reference energy    (file100) =  -75.596672115023722
	CCSD energy         (CC_INFO) =   -0.117138979040642
	Total CCSD energy   (CC_INFO) =  -75.713811094064368
	Number of States = 1

	Ground?  State     EOM Energy       R0
	   No     1 A1    0.4504621484  -0.00779842

energy:    0.4504621484
XIA amplitudes: norm=   0.181053808920180 dot=   0.032780481724505
X1 amplitudes:  norm=   0.222868631410652 dot=   0.049670426866857
Norm of Xi:    1.574310343547539

*** tstop() called on psinet at Mon May 15 15:34:23 2017
Module time:
	user time   =       0.02 seconds =       0.00 minutes
	system time =       0.03 seconds =       0.00 minutes
	total time  =          0 seconds =       0.00 minutes
Total time:
	user time   =       0.60 seconds =       0.01 minutes
	system time =       0.59 seconds =       0.01 minutes
	total time  =          2 seconds =       0.03 minutes

*** tstart() called on psinet
*** at Mon May 15 15:34:23 2017


			**************************
			*        CCLAMBDA        *
			**************************


	Nuclear Rep. energy (wfn)     =    8.647166888151858
	Reference           (wfn)     =                    1
	SCF energy          (wfn)     =  -75.596672115023679
	Reference energy    (CC_INFO) =  -75.596672115023722
	CCSD energy         (CC_INFO) =   -0.117138979040642
	Total CCSD energy   (CC_INFO) =  -75.713811094064368
	Irrep of Zeta       (CC_INFO) = 0

	Input parameters:
	-----------------
	Maxiter           =     50
	Convergence       = 1.0e-07
	Restart           =     No
	Cache Level       =     2
	Model III         =     No
	DIIS              =     Yes
	AO Basis          =     No
	ABCD              =     NEW
	Local CC          =     No
	Paramaters for left-handed eigenvectors:
	    Irr   Root  Ground-State?    EOM energy        R0
	  1   0     1         No       0.0000000000   0.0000000000
	Labels for eigenvector 1:
	ZIA, Zia, ZIJAB, Zijab, ZIjAb, 2ZIjAb - ZIjbA
	Deleting old CC_LAMBDA data.
	Symmetry of left-hand state: B1
	Symmetry of left-hand eigenvector: A1

	          Solving Lambda Equations
	          ------------------------
	Iter     PseudoEnergy or Norm         RMS  
	----     ---------------------     --------
	   0         0.155621413067931    5.002e-08
	   1         0.170528594936356    4.002e-02
	   2         0.179086749870940    1.434e-02
	   3         0.182385929399229    4.643e-03
	   4         0.183067996618791    1.576e-03
	   5         0.183220178694746    6.766e-04
	   6         0.183259939775038    2.693e-04
	   7         0.183257244514991    7.628e-05
	   8         0.183256937012989    2.093e-05
	   9         0.183256741406149    6.870e-06
	  10         0.183256936593886    2.188e-06
	  11         0.183256974008623    7.315e-07
	  12         0.183256978063938    2.114e-07
	  13         0.183256975288174    4.973e-08

	Largest LIA Amplitudes:
	          4   7        -0.0811192588
	          2   1         0.0563049594
	          4   9        -0.0446889498
	          3   5         0.0364884990
	          1   2        -0.0213729683
	          1   3         0.0174348088
	          4   8         0.0143636906
	          1   0        -0.0098489747
	          2   3        -0.0082785231
	          2   2        -0.0066499196

	Largest Lia Amplitudes:
	          4   7        -0.0486750323
	          4   9        -0.0264899070
	          2   1         0.0259234064
	          1   3         0.0113857098
	          4   8         0.0070404931
	          1   1         0.0068309253
	          2   0         0.0067741842
	          1   2        -0.0065934852
	          2   2        -0.0020183420
	          1   0        -0.0017861794

	Largest LIJAB Amplitudes:
	  4   2   7   0         0.0186462523
	  4   3   8   5        -0.0107430730
	  4   3   9   5         0.0103152928
	  4   2   9   0         0.0098110435
	  4   3   7   5         0.0088871151
	  4   2   7   2         0.0080306390
	  3   1   5   3        -0.0079358552
	  3   2   5   1        -0.0076942286
	  3   1   5   0         0.0063864417
	  4   2   8   1        -0.0057716677

	Largest Lijab Amplitudes:
	  4   2   7   0         0.0231976059
	  4   2   9   0         0.0134440509
	  4   2   7   2         0.0074591242
	  4   1   9   3         0.0058305932
	  4   1   7   3         0.0052807115
	  4   2   7   1        -0.0051863235
	  2   1   2   0        -0.0047743715
	  2   1   1   0         0.0045813536
	  4   1   8   3        -0.0045165462
	  4   1   8   2         0.0041175611

	Largest LIjAb Amplitudes:
	  4   4   7   7        -0.0430201198
	  4   4   9   7        -0.0316175566
	  4   4   7   9        -0.0306564469
	  4   4   9   9        -0.0276298206
	  3   2   1   6        -0.0264928680
	  3   1   2   6         0.0196907972
	  3   4   5   7         0.0172473711
	  4   4   8   8        -0.0162117366
	  2   4   1   7         0.0154786834
	  3   4   5   9         0.0154175966

	Iterations converged.

Norm of Zeta:    0.183256975288174

*** tstop() called on psinet at Mon May 15 15:34:23 2017
Module time:
	user time   =       0.04 seconds =       0.00 minutes
	system time =       0.04 seconds =       0.00 minutes
	total time  =          0 seconds =       0.00 minutes
Total time:
	user time   =       0.64 seconds =       0.01 minutes
	system time =       0.63 seconds =       0.01 minutes
	total time  =          2 seconds =       0.03 minutes

*** tstart() called on psinet
*** at Mon May 15 15:34:23 2017


			**************************
			*                        *
			*        CCDENSITY       *
			*                        *
			**************************


	Input parameters:
	-----------------
	Wave function    = EOM_CCSD
	Reference wfn    =  ROHF
	Dertype          = 1
	Tolerance        = 1.0e-14
	Cache Level      = 2
	AO Basis         = No
	OPDM Only        = No
	Relax OPDM       = Yes
	Compute Xi       = No
	Use Zeta         = Yes
	Xi connected     = Yes
	Compute NO       = No

	Nuclear Rep. energy (wfn)     =    8.647166888151858
	SCF energy          (wfn)     =  -75.596672115023679
	Reference energy    (file100) =  -75.596672115023722
	CCSD energy         (CC_INFO) =   -0.117138979040642
	Total CCSD energy   (CC_INFO) =  -75.713811094064368
	Number of States = 1

	Ground?  State     EOM Energy       R0
	   No     1 A1    0.4504621484  -0.00779842

	Energies re-computed from CC density:
	-------------------------------------
	One-electron energy        =    1.162676353205027
	IJKL energy                =    0.121996921070075
	IJKA energy                =   -0.108679007631527
	IJAB energy                =   -0.130612752124742
	IBJA energy                =   -0.779107568287057
	CIAB energy                =   -0.016315104672112
	ABCD energy                =    0.083364328255004
	Total two-electron energy  =   -0.829353183390359
	Total EOM CCSD correlation energy        =    0.333323169814668
	CCSD correlation + EOM excitation energy =    0.333323169374640
	Total EOM CCSD energy                    =  -75.263348945209046

	Virial Theorem Data:
	--------------------
	Kinetic energy (ref)   =   75.635518029961716
	Kinetic energy (corr)  =    0.345597652298465
	Kinetic energy (total) =   75.981115682260182
	-V/T (ref)             =    1.999486406440390
	-V/T (corr)            =    1.338946107595311
	-V/T (total)           =    1.996481960210829

	Energies re-computed from Fock-adjusted CC density:
	---------------------------------------------------
	One-electron energy        =    1.842115260675842
	IJKL energy                =   -7.068706981467944
	IJKA energy                =    0.874779328852124
	IJAB energy                =   -0.130612752124742
	IBJA energy                =    4.748699090273819
	CIAB energy                =   -0.016315104672112
	ABCD energy                =    0.083364328255004
	Total two-electron energy  =   -1.508792090883851
	Total EOM CCSD correlation energy        =    0.333323169791991
	CCSD correlation + EOM excitation energy =    0.333323169374640
	Total EOM CCSD energy                    =  -75.263348945231726

	Energies re-computed from Mulliken density:
	-------------------------------------------
	One-electron energy        =    1.842115260675842
	IJKL energy                =   -7.068706981467944
	IJKA energy                =    0.874779328852124
	IJAB energy                =   -0.328667706033517
	IBJA energy                =    4.946754044182596
	CIAB energy                =   -0.016315104672112
	ABCD energy                =    0.083364328255004
	Total two-electron energy  =   -1.508792090883849
	Total EOM CCSD correlation energy        =    0.333323169791993
	CCSD correlation + EOM excitation energy =    0.333323169374640
	Total EOM CCSD energy                    =  -75.263348945231726


Properties will be evaluated at   0.000000,   0.000000,   0.000000 Bohr

Properties computed using the CC density matrix

  Nuclear Dipole Moment: (a.u.)
     X:     0.0000      Y:     0.0000      Z:     1.1250

  Electronic Dipole Moment: (a.u.)
     X:     0.0000      Y:     0.0000      Z:    -1.1104

  Dipole Moment: (a.u.)
     X:     0.0000      Y:     0.0000      Z:     0.0146     Total:     0.0146

  Dipole Moment: (Debye)
     X:     0.0000      Y:     0.0000      Z:     0.0372     Total:     0.0372

  Quadrupole Moment: (Debye Ang)
    XX:    -5.6076     YY:    -5.9607     ZZ:    -5.6785
    XY:    -0.0000     XZ:     0.0000     YZ:     0.0000

  Traceless Quadrupole Moment: (Debye Ang)
    XX:     0.1413     YY:    -0.2118     ZZ:     0.0705
    XY:    -0.0000     XZ:     0.0000     YZ:     0.0000

  Mulliken Charges: (a.u.)
   Center  Symbol    Alpha    Beta     Spin     Total
       1     H     0.39247  0.45556 -0.06309  0.15196
       2     O     4.21505  3.08887  1.12618  0.69607
       3     H     0.39247  0.45556 -0.06309  0.15196

   Total alpha =  5.00000, Total beta =  4.00000, Total charge =  1.00000

  Natural Orbital Occupations:

  Alpha Occupations:
  HONO-2 :    1 B2    0.971
  HONO-1 :    1 B1    0.873
  HONO-0 :    3 A1    0.676
  LUNO+0 :    4 A1    0.436
  LUNO+1 :    2 B2    0.035
  LUNO+2 :    2 B1    0.005
  LUNO+3 :    5 A1    0.004

  Beta Occupations:
  HONO-2 :    2 A1    0.992
  HONO-1 :    1 B2    0.966
  HONO-0 :    3 A1    0.525
  LUNO+0 :    4 A1    0.359
  LUNO+1 :    1 B1    0.124
  LUNO+2 :    2 B2    0.024
  LUNO+3 :    5 A1    0.004

  Total Occupations:
  HONO-2 :    2 A1    1.986
  HONO-1 :    1 B2    1.936
  HONO-0 :    3 A1    1.037
  LUNO+0 :    1 B1    0.997
  LUNO+1 :    4 A1    0.959
  LUNO+2 :    2 B2    0.060
  LUNO+3 :    5 A1    0.008


*** tstop() called on psinet at Mon May 15 15:34:23 2017
Module time:
	user time   =       0.06 seconds =       0.00 minutes
	system time =       0.06 seconds =       0.00 minutes
	total time  =          0 seconds =       0.00 minutes
Total time:
	user time   =       0.70 seconds =       0.01 minutes
	system time =       0.69 seconds =       0.01 minutes
	total time  =          2 seconds =       0.03 minutes
  Cartesian Displacement SALCs
  By SALC:
  Number of SALCs: 3, nirreps: 1
  Project out translations: False
  Project out rotations: False
	irrep = 0, ncomponent = 2
		0: atom 0, direction y, coef 0.707107
		1: atom 2, direction y, coef -0.707107
	irrep = 0, ncomponent = 2
		0: atom 0, direction z, coef 0.707107
		1: atom 2, direction z, coef 0.707107
	irrep = 0, ncomponent = 1
		0: atom 1, direction z, coef 1.000000

  By Atomic Center:
  Number of atomic centers: 3
   Atomic Center 0:
	x component, size = 0
	y component, size = 1
		0: salc 0, irrep 0, coef 0.707107
	z component, size = 1
		0: salc 1, irrep 0, coef 0.707107
   Atomic Center 1:
	x component, size = 0
	y component, size = 0
	z component, size = 1
		0: salc 2, irrep 0, coef 1.000000
   Atomic Center 2:
	x component, size = 0
	y component, size = 1
		0: salc 0, irrep 0, coef -0.707107
	z component, size = 1
		0: salc 1, irrep 0, coef 0.707107

    Molecular point group: c2v
    Full point group: C2v

    Geometry (in Bohr), charge = 1, multiplicity = 2:

       Center              X                  Y                   Z       
    ------------   -----------------  -----------------  -----------------
           H          0.000000000000    -1.443627918148     1.134274838578
           O          0.000000000000     0.000000000000    -0.142939253226
           H         -0.000000000000     1.443627918148     1.134274838578

	Presorting MO-basis TPDM.
	Sorting File: MO TPDM (AA|AA) nbuckets = 1
	Starting first half-transformation.
	Sorting half-transformed TPDM.
	First half integral transformation complete.


  -Nuclear Repulsion Energy 1st Derivatives:
     Atom            X                  Y                   Z
    ------   -----------------  -----------------  -----------------
       1       -0.000000000000     1.732636842258    -1.426777654799
       2        0.000000000000     0.000000000000     2.853555309597
       3        0.000000000000    -1.732636842258    -1.426777654799


  -One-electron contribution to gradient:
     Atom            X                  Y                   Z
    ------   -----------------  -----------------  -----------------
       1        0.000000000000    -2.315788221628     2.192980107895
       2        0.000000000000     0.000000000000    -4.385960215790
       3       -0.000000000000     2.315788221628     2.192980107895


  -Lagrangian contribution to gradient:
     Atom            X                  Y                   Z
    ------   -----------------  -----------------  -----------------
       1       -0.000000000000     0.162284271383    -0.186376616244
       2        0.000000000000     0.000000000000     0.372753232487
       3        0.000000000000    -0.162284271383    -0.186376616244


  -Two-electron contribution to gradient:
     Atom            X                  Y                   Z
    ------   -----------------  -----------------  -----------------
       1       -0.000000000000     0.603371177869    -0.670456725200
       2        0.000000000000     0.000000000000     1.340913450400
       3        0.000000000000    -0.603371177869    -0.670456725200


  -Total gradient:
     Atom            X                  Y                   Z
    ------   -----------------  -----------------  -----------------
       1       -0.000000000000     0.182504069882    -0.090630888347
       2        0.000000000000     0.000000000000     0.181261776694
       3        0.000000000000    -0.182504069882    -0.090630888347

gradient() will perform gradient computation by finite difference of analytic energies.

-------------------------------------------------------------

  Using finite-differences of energies to determine gradients (fd_geoms_1_0).
	Generating geometries for use with 3-point formula.
	Displacement size will be 5.00e-03.
	Number of atoms is 3.
	Number of symmetric SALC's is 2.
	Number of displacements (including reference) is 5.

-------------------------------------------------------------

  //>>>>>>>>>>>>>>>>>>>>>>>>>>>>>>>>>>>//
  //    Loading displacement 1 of 5    //
  //<<<<<<<<<<<<<<<<<<<<<<<<<<<<<<<<<<<//

*** tstart() called on psinet
*** at Mon May 15 15:34:23 2017

   => Loading Basis Set <=

    Name: DZ
    Role: ORBITAL
    Keyword: BASIS
    atoms 1, 3 entry H          line    11 file /home/psilocaluser/gits/hrw-direct/objdir4/stage/usr/local/psi4/share/psi4/basis/dz.gbs 
    atoms 2    entry O          line   106 file /home/psilocaluser/gits/hrw-direct/objdir4/stage/usr/local/psi4/share/psi4/basis/dz.gbs 


         ---------------------------------------------------------
                                   SCF
            by Justin Turney, Rob Parrish, and Andy Simmonett
                             ROHF Reference
                        1 Threads,    500 MiB Core
         ---------------------------------------------------------

  ==> Geometry <==

    Molecular point group: c2v
    Full point group: C2v

    Geometry (in Bohr), charge = 1, multiplicity = 2:

       Center              X                  Y                   Z               Mass       
    ------------   -----------------  -----------------  -----------------  -----------------
           H          0.000000000000    -1.447149699877     1.134274838578     1.007825032070
           O          0.000000000000     0.000000000000    -0.142939253226    15.994914619560
           H         -0.000000000000     1.447149699877     1.134274838578     1.007825032070

  Running in c2v symmetry.

  Rotational constants: A =     20.61565  B =     14.26107  C =      8.42973 [cm^-1]
  Rotational constants: A = 618041.72688  B = 427536.18680  C = 252716.89439 [MHz]
  Nuclear repulsion =    8.634974470989285

  Charge       = 1
  Multiplicity = 2
  Electrons    = 9
  Nalpha       = 5
  Nbeta        = 4

  ==> Algorithm <==

  SCF Algorithm Type is PK.
  DIIS enabled.
  MOM disabled.
  Fractional occupation disabled.
  Guess Type is GWH.
  Energy threshold   = 1.00e-10
  Density threshold  = 1.00e-10
  Integral threshold = 0.00e+00

  ==> Primary Basis <==

  Basis Set: DZ
    Blend: DZ
    Number of shells: 10
    Number of basis function: 14
    Number of Cartesian functions: 14
    Spherical Harmonics?: false
    Max angular momentum: 1

  ==> Pre-Iterations <==

   -------------------------------------------------------
    Irrep   Nso     Nmo     Nalpha   Nbeta   Ndocc  Nsocc
   -------------------------------------------------------
     A1         8       8       0       0       0       0
     A2         0       0       0       0       0       0
     B1         2       2       0       0       0       0
     B2         4       4       0       0       0       0
   -------------------------------------------------------
    Total      14      14       5       4       4       1
   -------------------------------------------------------

  ==> Integral Setup <==

  Using in-core PK algorithm.
   Calculation information:
      Number of atoms:                   3
      Number of AO shells:              10
      Number of primitives:             22
      Number of atomic orbitals:        14
      Number of basis functions:        14

      Integral cutoff                 1.00e-12
      Number of threads:                 1

  Performing in-core PK
  Using 11130 doubles for integral storage.
  We computed 1540 shell quartets total.
  Whereas there are 1540 unique shell quartets.
  ==> DiskJK: Disk-Based J/K Matrices <==

    J tasked:                  Yes
    K tasked:                  Yes
    wK tasked:                  No
    Memory (MB):               375
    Schwarz Cutoff:          1E-12

    OpenMP threads:              1
  Minimum eigenvalue in the overlap matrix is 6.0948076218E-02.
  Using Symmetric Orthogonalization.

  SCF Guess: Generalized Wolfsberg-Helmholtz.

  ==> Iterations <==

                        Total Energy        Delta E     RMS |[F,P]|

   @ROHF iter   1:   -75.16904144114466   -7.51690e+01   1.92837e-01 
   @ROHF iter   2:   -75.55598660270675   -3.86945e-01   2.66750e-02 DIIS
   @ROHF iter   3:   -75.58957592828258   -3.35893e-02   9.97207e-03 DIIS
   @ROHF iter   4:   -75.59645430040740   -6.87837e-03   1.61063e-03 DIIS
   @ROHF iter   5:   -75.59672576448432   -2.71464e-04   1.84761e-04 DIIS
   @ROHF iter   6:   -75.59673226714918   -6.50266e-06   4.81370e-05 DIIS
   @ROHF iter   7:   -75.59673278425416   -5.17105e-07   7.72583e-06 DIIS
   @ROHF iter   8:   -75.59673279581006   -1.15559e-08   5.63800e-07 DIIS
   @ROHF iter   9:   -75.59673279587582   -6.57678e-11   4.37262e-08 DIIS
   @ROHF iter  10:   -75.59673279587605   -2.27374e-13   4.88363e-09 DIIS
   @ROHF iter  11:   -75.59673279587614   -8.52651e-14   2.39524e-10 DIIS
   @ROHF iter  12:   -75.59673279587614    0.00000e+00   3.71487e-11 DIIS

  ==> Post-Iterations <==

    Orbital Energies (a.u.)
    -----------------------

    Doubly Occupied:                                                      

       1A1   -21.103823     2A1    -1.812332     1B2    -1.146358  
       3A1    -1.051235  

    Singly Occupied:                                                      

       1B1    -0.689705  

    Virtual:                                                              

       4A1    -0.142199     2B2    -0.064703     2B1     0.460664  
       5A1     0.502268     3B2     0.546306     4B2     0.755942  
       6A1     0.781311     7A1     1.243377     8A1    42.782104  

    Final Occupation by Irrep:
             A1    A2    B1    B2 
    DOCC [     3,    0,    0,    1 ]
    SOCC [     0,    0,    1,    0 ]

  Energy converged.

  @ROHF Final Energy:   -75.59673279587614

   => Energetics <=

    Nuclear Repulsion Energy =              8.6349744709892846
    One-Electron Energy =                -117.1216293315775658
    Two-Electron Energy =                  32.8899220647121311
    DFT Exchange-Correlation Energy =       0.0000000000000000
    Empirical Dispersion Energy =           0.0000000000000000
    PCM Polarization Energy =               0.0000000000000000
    EFP Energy =                            0.0000000000000000
    Total Energy =                        -75.5967327958761643



Properties will be evaluated at   0.000000,   0.000000,   0.000000 Bohr

Properties computed using the SCF density matrix

  Nuclear Dipole Moment: (a.u.)
     X:     0.0000      Y:     0.0000      Z:     1.1250

  Electronic Dipole Moment: (a.u.)
     X:     0.0000      Y:     0.0000      Z:     0.2143

  Dipole Moment: (a.u.)
     X:     0.0000      Y:     0.0000      Z:     1.3394     Total:     1.3394

  Dipole Moment: (Debye)
     X:     0.0000      Y:     0.0000      Z:     3.4043     Total:     3.4043


*** tstop() called on psinet at Mon May 15 15:34:23 2017
Module time:
	user time   =       0.13 seconds =       0.00 minutes
	system time =       0.00 seconds =       0.00 minutes
	total time  =          0 seconds =       0.00 minutes
Total time:
	user time   =       0.87 seconds =       0.01 minutes
	system time =       0.70 seconds =       0.01 minutes
	total time  =          2 seconds =       0.03 minutes
 MINTS: Wrapper to libmints.
   by Justin Turney

   Calculation information:
      Number of threads:                 1
      Number of atoms:                   3
      Number of AO shells:              10
      Number of SO shells:               8
      Number of primitives:             22
      Number of atomic orbitals:        14
      Number of basis functions:        14

      Number of irreps:                  4
      Integral cutoff                 0.00e+00
      Number of functions per irrep: [   8    0    2    4 ]

 OEINTS: Overlap, kinetic, potential, dipole, and quadrupole integrals
         stored in file 35.

      Computing two-electron integrals...done
      Computed 1709 non-zero two-electron integrals.
        Stored in file 33.


*** tstart() called on psinet
*** at Mon May 15 15:34:23 2017


	Wfn Parameters:
	--------------------
	Wavefunction         = CCSD
	Number of irreps     = 4
	Number of MOs        = 14
	Number of active MOs = 14
	AO-Basis             = NONE
	Semicanonical        = false
	Reference            = ROHF
	Print Level          = 1

	IRREP	# MOs	# FZDC	# DOCC	# SOCC	# VIRT	# FZVR
	-----	-----	------	------	------	------	------
	 A1	   8	    0	    3	    0	    5	    0
	 A2	   0	    0	    0	    0	    0	    0
	 B1	   2	    0	    0	    1	    1	    0
	 B2	   4	    0	    1	    0	    3	    0
	Transforming integrals...
	IWL integrals will be deleted.
	(OO|OO)...
	Presorting SO-basis two-electron integrals.
	Sorting File: SO Ints (nn|nn) nbuckets = 1
	Transforming the one-electron integrals and constructing Fock matrices
	Starting first half-transformation.
	Sorting half-transformed integrals.
	First half integral transformation complete.
	Starting second half-transformation.
	Two-electron integral transformation complete.
	(OO|OV)...
	Starting second half-transformation.
	Two-electron integral transformation complete.
	(OO|VV)...
	Starting second half-transformation.
	Two-electron integral transformation complete.
	(OV|OO)...
	Starting first half-transformation.
	Sorting half-transformed integrals.
	First half integral transformation complete.
	Starting second half-transformation.
	Two-electron integral transformation complete.
	(OV|OV)...
	Starting second half-transformation.
	Two-electron integral transformation complete.
	(OV|VV)...
	Starting second half-transformation.
	Two-electron integral transformation complete.
	(VV|OO)...
	Starting first half-transformation.
	Sorting half-transformed integrals.
	First half integral transformation complete.
	Starting second half-transformation.
	Two-electron integral transformation complete.
	(VV|OV)...
	Starting second half-transformation.
	Two-electron integral transformation complete.
	(VV|VV)...
	Starting second half-transformation.
	Two-electron integral transformation complete.
	Frozen core energy     =      0.00000000000000

	Size of irrep 0 of <ab|cd> integrals:      0.001 (MW) /      0.012 (MB)
	Size of irrep 1 of <ab|cd> integrals:      0.000 (MW) /      0.001 (MB)
	Size of irrep 2 of <ab|cd> integrals:      0.000 (MW) /      0.003 (MB)
	Size of irrep 3 of <ab|cd> integrals:      0.001 (MW) /      0.007 (MB)
	Total:                                     0.003 (MW) /      0.023 (MB)

	Size of irrep 0 of <ia|bc> integrals:      0.001 (MW) /      0.006 (MB)
	Size of irrep 1 of <ia|bc> integrals:      0.000 (MW) /      0.000 (MB)
	Size of irrep 2 of <ia|bc> integrals:      0.000 (MW) /      0.002 (MB)
	Size of irrep 3 of <ia|bc> integrals:      0.000 (MW) /      0.003 (MB)
	Total:                                     0.001 (MW) /      0.012 (MB)

	Size of irrep 0 of tIjAb amplitudes:       0.000 (MW) /      0.003 (MB)
	Size of irrep 1 of tIjAb amplitudes:       0.000 (MW) /      0.000 (MB)
	Size of irrep 2 of tIjAb amplitudes:       0.000 (MW) /      0.001 (MB)
	Size of irrep 3 of tIjAb amplitudes:       0.000 (MW) /      0.001 (MB)
	Total:                                     0.001 (MW) /      0.006 (MB)

	Nuclear Rep. energy          =      8.63497447098928
	SCF energy                   =    -75.59673279587614
	One-electron energy          =   -117.12162933239671
	Two-electron (AA) energy     =      7.70498226799504
	Two-electron (BB) energy     =      4.66652056081759
	Two-electron (AB) energy     =     20.51841923671861
	Two-electron energy          =    -84.23170726686547
	Reference energy             =    -75.59673279587619

*** tstop() called on psinet at Mon May 15 15:34:23 2017
Module time:
	user time   =       0.01 seconds =       0.00 minutes
	system time =       0.03 seconds =       0.00 minutes
	total time  =          0 seconds =       0.00 minutes
Total time:
	user time   =       0.90 seconds =       0.02 minutes
	system time =       0.74 seconds =       0.01 minutes
	total time  =          2 seconds =       0.03 minutes

*** tstart() called on psinet
*** at Mon May 15 15:34:23 2017

            **************************
            *                        *
            *        CCENERGY        *
            *                        *
            **************************

    Nuclear Rep. energy (wfn)     =    8.634974470989285
    SCF energy          (wfn)     =  -75.596732795876136
    Reference energy    (file100) =  -75.596732795876193

    Input parameters:
    -----------------
    Wave function   =     CCSD
    Reference wfn   =     ROHF
    Brueckner       =     No
    Memory (Mbytes) =     524.3
    Maxiter         =     50
    R_Convergence   =     1.0e-07
    E_Convergence   =     1.0e-08
    Restart         =     Yes
    DIIS            =     Yes
    AO Basis        =     NONE
    ABCD            =     NEW
    Cache Level     =     2
    Cache Type      =     LOW
    Print Level     =     1
    Num. of threads =     1
    # Amps to Print =     10
    Print MP2 Amps? =     No
    Analyze T2 Amps =     No
    Print Pair Ener =     No
    Local CC        =     No
    SCS-MP2         =     False
    SCSN-MP2        =     False
    SCS-CCSD        =     False

    Using old T1 amplitudes.
    Using old T2 amplitudes.
                Solving CC Amplitude Equations
                ------------------------------
  Iter             Energy              RMS        T1Diag      D1Diag    New D1Diag    D2Diag
  ----     ---------------------    ---------   ----------  ----------  ----------   --------
     0        -0.117161398424762    0.000e+00    0.008259    0.016136    0.016136    0.000000
     1        -0.117231172253386    4.733e-04    0.008268    0.016143    0.016143    0.000000
     2        -0.117239186401922    1.299e-04    0.008281    0.016171    0.016171    0.000000
     3        -0.117246102372316    4.909e-05    0.008286    0.016181    0.016181    0.000000
     4        -0.117247208470093    1.666e-05    0.008287    0.016184    0.016184    0.000000
     5        -0.117247657089705    7.328e-06    0.008288    0.016184    0.016184    0.000000
     6        -0.117247740601991    2.837e-06    0.008288    0.016183    0.016183    0.000000
     7        -0.117247752776644    8.626e-07    0.008288    0.016183    0.016183    0.000000
     8        -0.117247761798273    2.462e-07    0.008288    0.016183    0.016183    0.000000
     9        -0.117247763934248    4.478e-08    0.008288    0.016183    0.016183    0.000000

    Iterations converged.


    Largest TIA Amplitudes:
              3   5        -0.0113963279
              1   0        -0.0103004956
              1   2        -0.0094665302
              2   0         0.0083418563
              4   8         0.0071450956
              4   9        -0.0070666610
              1   3         0.0035220916
              2   1         0.0031311960
              1   1         0.0027445625
              2   3         0.0024767603

    Largest Tia Amplitudes:
              4   7         0.0321919492
              1   0         0.0210565835
              2   0         0.0173385679
              2   1        -0.0168041339
              1   2         0.0147730567
              4   9         0.0101578498
              2   3         0.0063963156
              1   1         0.0051148116
              4   8         0.0039819651
              2   2         0.0021090418

    Largest TIJAB Amplitudes:
      3   2   5   1        -0.0233464133
      4   3   7   5         0.0195575876
      4   2   7   1         0.0177534468
      4   3   9   5         0.0146863848
      4   2   9   1         0.0134561218
      4   3   8   5        -0.0129394605
      3   2   5   0         0.0121240131
      4   2   8   1        -0.0113417719
      3   1   5   0         0.0111374460
      3   1   5   3        -0.0100918266

    Largest Tijab Amplitudes:
      4   2   7   1         0.0181562373
      4   2   9   1         0.0129896281
      4   2   8   1        -0.0109262864
      2   1   1   0         0.0091953978
      4   2   7   0        -0.0090646123
      2   1   3   1         0.0085045880
      4   1   8   0         0.0073358291
      4   1   7   0        -0.0071286314
      4   1   7   3         0.0064533443
      4   2   8   0         0.0063322525

    Largest TIjAb Amplitudes:
      4   4   7   7        -0.0527739356
      2   2   1   1        -0.0435877195
      4   4   9   7        -0.0353093548
      4   4   7   9        -0.0348058263
      3   4   7   6         0.0324719568
      3   2   5   1        -0.0313859793
      3   1   0   6         0.0302442258
      4   4   9   9        -0.0299419555
      2   4   1   7         0.0272298714
      4   2   7   1         0.0268623787

    SCF energy       (wfn)                    =  -75.596732795876136
    Reference energy (file100)                =  -75.596732795876193

    Opposite-spin CCSD correlation energy     =   -0.099234307944889
    Same-spin CCSD correlation energy         =   -0.016319630238749
    CCSD correlation energy                   =   -0.117247763934248
      * CCSD total energy                     =  -75.713980559810437


*** tstop() called on psinet at Mon May 15 15:34:23 2017
Module time:
	user time   =       0.10 seconds =       0.00 minutes
	system time =       0.17 seconds =       0.00 minutes
	total time  =          0 seconds =       0.00 minutes
Total time:
	user time   =       1.00 seconds =       0.02 minutes
	system time =       0.91 seconds =       0.02 minutes
	total time  =          2 seconds =       0.03 minutes

*** tstart() called on psinet
*** at Mon May 15 15:34:23 2017


			**************************
			*                        *
			*         CCHBAR         *
			*                        *
			**************************


*** tstop() called on psinet at Mon May 15 15:34:23 2017
Module time:
	user time   =       0.01 seconds =       0.00 minutes
	system time =       0.02 seconds =       0.00 minutes
	total time  =          0 seconds =       0.00 minutes
Total time:
	user time   =       1.01 seconds =       0.02 minutes
	system time =       0.93 seconds =       0.02 minutes
	total time  =          2 seconds =       0.03 minutes

*** tstart() called on psinet
*** at Mon May 15 15:34:23 2017


	**********************************************************
	*  CCEOM: An Equation of Motion Coupled Cluster Program  *
	**********************************************************

	Nuclear Rep. energy (wfn)     =    8.634974470989285
	SCF energy          (wfn)     =  -75.596732795876136
	Reference energy    (file100) =  -75.596732795876193
	CCSD energy         (file100) =   -0.117247763934248

	Input parameters:
	-----------------
	Reference wfn   =    ROHF
	Reference EOM wfn=    ROHF
	Memory (Mbytes) =  524.3
	ABCD            =     NEW
	Cache Level     =    2
	Cache Type      =     LRU
	Num. of threads =     1
	Local CC        =     No


	CCEOM parameters:
	-----------------
	States sought per irrep     = A1 0, A2 0, B1 1, B2 0,
	Max. number of iterations   =    80
	Vectors stored per root     =    12
	Print HbarSS iterations?    =     0
	Excitation range for HBarSS =     2
	Eigenvalue tolerance        = 1.0e-08
	Eigenvalue toleranceSS      = 1.0e-06
	Residual vector tolerance   = 1.0e-06
	Residual vector toleranceSS = 1.0e-06
	Complex tolerance           = 1.0e-12
	Root for properties         =     1
	Sym of state for properties =     A1
	Guess vectors taken from    = SINGLES
	Restart EOM CC3             = NO
	Collapse with last vector   = YES


Symmetry of ground state: B1
Symmetry of excited state: B1
Symmetry of right eigenvector: A1
Obtaining initial guess from singles-singles block of Hbar...Done.

Iter=1    L=1     Root    EOM Energy     Delta E   Res. Norm    Conv?
                     1   0.5232714244   5.23e-01    3.36e-01      N
Iter=2    L=2     Root    EOM Energy     Delta E   Res. Norm    Conv?
                     1   0.4667487544  -5.65e-02    8.10e-02      N
Iter=3    L=3     Root    EOM Energy     Delta E   Res. Norm    Conv?
                     1   0.4589915544  -7.76e-03    7.00e-02      N
Iter=4    L=4     Root    EOM Energy     Delta E   Res. Norm    Conv?
                     1   0.4531923362  -5.80e-03    6.33e-02      N
Iter=5    L=5     Root    EOM Energy     Delta E   Res. Norm    Conv?
                     1   0.4510164056  -2.18e-03    3.46e-02      N
Iter=6    L=6     Root    EOM Energy     Delta E   Res. Norm    Conv?
                     1   0.4501933023  -8.23e-04    2.32e-02      N
Iter=7    L=7     Root    EOM Energy     Delta E   Res. Norm    Conv?
                     1   0.4496333775  -5.60e-04    2.02e-02      N
Iter=8    L=8     Root    EOM Energy     Delta E   Res. Norm    Conv?
                     1   0.4494337313  -2.00e-04    1.09e-02      N
Iter=9    L=9     Root    EOM Energy     Delta E   Res. Norm    Conv?
                     1   0.4493910336  -4.27e-05    5.18e-03      N
Iter=10   L=10    Root    EOM Energy     Delta E   Res. Norm    Conv?
                     1   0.4493646528  -2.64e-05    4.27e-03      N
Iter=11   L=11    Root    EOM Energy     Delta E   Res. Norm    Conv?
                     1   0.4493546239  -1.00e-05    2.07e-03      N
Iter=12   L=12    Root    EOM Energy     Delta E   Res. Norm    Conv?
                     1   0.4493515513  -3.07e-06    7.75e-04      N
Iter=13   L=2     Root    EOM Energy     Delta E   Res. Norm    Conv?
                     1   0.4493515513  -1.67e-15    7.75e-04      N
Iter=14   L=3     Root    EOM Energy     Delta E   Res. Norm    Conv?
                     1   0.4493515413  -9.99e-09    6.26e-04      N
Iter=15   L=4     Root    EOM Energy     Delta E   Res. Norm    Conv?
                     1   0.4493500599  -1.48e-06    4.07e-04      N
Iter=16   L=5     Root    EOM Energy     Delta E   Res. Norm    Conv?
                     1   0.4493497516  -3.08e-07    1.58e-04      N
Iter=17   L=6     Root    EOM Energy     Delta E   Res. Norm    Conv?
                     1   0.4493493576  -3.94e-07    6.76e-05      N
Iter=18   L=7     Root    EOM Energy     Delta E   Res. Norm    Conv?
                     1   0.4493493480  -9.61e-09    2.94e-05      N
Iter=19   L=8     Root    EOM Energy     Delta E   Res. Norm    Conv?
                     1   0.4493493603   1.23e-08    1.03e-05      N
Iter=20   L=9     Root    EOM Energy     Delta E   Res. Norm    Conv?
                     1   0.4493493551  -5.18e-09    4.39e-06      N
Iter=21   L=10    Root    EOM Energy     Delta E   Res. Norm    Conv?
                     1   0.4493493513  -3.78e-09    3.40e-06      N
Iter=22   L=11    Root    EOM Energy     Delta E   Res. Norm    Conv?
                     1   0.4493493511  -2.35e-10    3.52e-06      N
Iter=23   L=12    Root    EOM Energy     Delta E   Res. Norm    Conv?
                     1   0.4493493447  -6.37e-09    1.28e-06      N
Iter=24   L=2     Root    EOM Energy     Delta E   Res. Norm    Conv?
                     1   0.4493493447   8.39e-14    1.28e-06      N
Iter=25   L=3     Root    EOM Energy     Delta E   Res. Norm    Conv?
                     1   0.4493493444  -2.69e-10    3.35e-07      Y
Collapsing to only 1 vector(s).

Procedure converged for 1 root(s).
Energy written to CC_INFO:Etot  -75.2646312154
States per irrep written to CC_INFO.
<R|R> =   1.0000000000000002
EOM CCSD R0 for root 0 =   0.00786431173

Final Energetic Summary for Converged Roots of Irrep B1
                     Excitation Energy              Total Energy
                (eV)     (cm^-1)     (au)             (au)
EOM State 1     12.227    98620.8   0.4493493444   -75.264631215365

Largest components of excited wave function #1:
 RIA (libdpd indices) : (cscf notation)
         2 >   0      :       3a1 >    4a1 :    0.5430470312
         0 >   0      :       1b2 >    2b2 :    0.1264477093
         2 >   2      :       3a1 >    6a1 :    0.0658582135
         2 >   1      :       3a1 >    5a1 :   -0.0579701562
         1 >   0      :       2a1 >    4a1 :    0.0361613801
 Ria (libdpd indices) : (cscf notation)
         2 >   0      :       3a1 >    4a1 :   -0.7129084444
         0 >   0      :       1b2 >    2b2 :   -0.1122858579
         2 >   2      :       3a1 >    6a1 :   -0.0735730987
         2 >   1      :       3a1 >    5a1 :    0.0575577841
         0 >   2      :       1b2 >    4b2 :   -0.0298342184
 RIjAb (libdpd indices)     : (cscf notation)
        0   2 >   0   1     :    1b1    3a1 >    4a1    1b1 :    0.3213120759
        0   0 >   0   1     :    1b1    1b2 >    2b2    1b1 :    0.0851030501
        0   2 >   0   0     :    1b2    3a1 >    2b2    4a1 :    0.0696807931
        2   2 >   1   0     :    3a1    3a1 >    5a1    4a1 :   -0.0552757196
        2   0 >   0   0     :    3a1    1b2 >    4a1    2b2 :   -0.0542131236
 RIJAB (libdpd indices)     : (cscf notation)
        0   2 >   0   0     :    1b1    3a1 >    2b1    4a1 :    0.0281779822
        0   2 >   0   0     :    1b2    3a1 >    2b2    4a1 :   -0.0278094240
        0   2 >   2   0     :    1b2    3a1 >    4b2    4a1 :   -0.0165076953
        2   1 >   2   0     :    3a1    2a1 >    6a1    4a1 :    0.0109059385
        0   2 >   0   2     :    1b2    3a1 >    2b2    6a1 :    0.0097680549
 Rijab (libdpd indices)     : (cscf notation)
        0   2 >   0   0     :    1b2    3a1 >    2b2    4a1 :    0.0375692828
        0   2 >   2   0     :    1b2    3a1 >    4b2    4a1 :    0.0224054907
        2   1 >   1   0     :    3a1    2a1 >    1b1    2b1 :    0.0163182123
        2   1 >   2   0     :    3a1    2a1 >    6a1    4a1 :   -0.0153263536
        0   2 >   0   2     :    1b2    3a1 >    2b2    6a1 :   -0.0140933225

	Putting into environment energy for root of R irrep 1 and root 1.
	Putting into environment CURRENT ENERGY:              -75.2646312154

	Total # of sigma evaluations: 23

*** tstop() called on psinet at Mon May 15 15:34:24 2017
Module time:
	user time   =       0.16 seconds =       0.00 minutes
	system time =       0.13 seconds =       0.00 minutes
	total time  =          1 seconds =       0.02 minutes
Total time:
	user time   =       1.17 seconds =       0.02 minutes
	system time =       1.06 seconds =       0.02 minutes
	total time  =          3 seconds =       0.05 minutes

  //>>>>>>>>>>>>>>>>>>>>>>>>>>>>>>>>>>>//
  //    Loading displacement 2 of 5    //
  //<<<<<<<<<<<<<<<<<<<<<<<<<<<<<<<<<<<//

*** tstart() called on psinet
*** at Mon May 15 15:34:24 2017

   => Loading Basis Set <=

    Name: DZ
    Role: ORBITAL
    Keyword: BASIS
    atoms 1, 3 entry H          line    11 file /home/psilocaluser/gits/hrw-direct/objdir4/stage/usr/local/psi4/share/psi4/basis/dz.gbs 
    atoms 2    entry O          line   106 file /home/psilocaluser/gits/hrw-direct/objdir4/stage/usr/local/psi4/share/psi4/basis/dz.gbs 


         ---------------------------------------------------------
                                   SCF
            by Justin Turney, Rob Parrish, and Andy Simmonett
                             ROHF Reference
                        1 Threads,    500 MiB Core
         ---------------------------------------------------------

  ==> Geometry <==

    Molecular point group: c2v
    Full point group: C2v

    Geometry (in Bohr), charge = 1, multiplicity = 2:

       Center              X                  Y                   Z               Mass       
    ------------   -----------------  -----------------  -----------------  -----------------
           H          0.000000000000    -1.440106136420     1.134274838578     1.007825032070
           O         -0.000000000000     0.000000000000    -0.142939253226    15.994914619560
           H         -0.000000000000     1.440106136420     1.134274838578     1.007825032070

  Running in c2v symmetry.

  Rotational constants: A =     20.61565  B =     14.40092  C =      8.47839 [cm^-1]
  Rotational constants: A = 618041.72688  B = 431728.57584  C = 254175.86482 [MHz]
  Nuclear repulsion =    8.659382348734434

  Charge       = 1
  Multiplicity = 2
  Electrons    = 9
  Nalpha       = 5
  Nbeta        = 4

  ==> Algorithm <==

  SCF Algorithm Type is PK.
  DIIS enabled.
  MOM disabled.
  Fractional occupation disabled.
  Guess Type is GWH.
  Energy threshold   = 1.00e-10
  Density threshold  = 1.00e-10
  Integral threshold = 0.00e+00

  ==> Primary Basis <==

  Basis Set: DZ
    Blend: DZ
    Number of shells: 10
    Number of basis function: 14
    Number of Cartesian functions: 14
    Spherical Harmonics?: false
    Max angular momentum: 1

  ==> Pre-Iterations <==

   -------------------------------------------------------
    Irrep   Nso     Nmo     Nalpha   Nbeta   Ndocc  Nsocc
   -------------------------------------------------------
     A1         8       8       0       0       0       0
     A2         0       0       0       0       0       0
     B1         2       2       0       0       0       0
     B2         4       4       0       0       0       0
   -------------------------------------------------------
    Total      14      14       5       4       4       1
   -------------------------------------------------------

  ==> Integral Setup <==

  Using in-core PK algorithm.
   Calculation information:
      Number of atoms:                   3
      Number of AO shells:              10
      Number of primitives:             22
      Number of atomic orbitals:        14
      Number of basis functions:        14

      Integral cutoff                 1.00e-12
      Number of threads:                 1

  Performing in-core PK
  Using 11130 doubles for integral storage.
  We computed 1540 shell quartets total.
  Whereas there are 1540 unique shell quartets.
  ==> DiskJK: Disk-Based J/K Matrices <==

    J tasked:                  Yes
    K tasked:                  Yes
    wK tasked:                  No
    Memory (MB):               375
    Schwarz Cutoff:          1E-12

    OpenMP threads:              1
  Minimum eigenvalue in the overlap matrix is 6.0565460892E-02.
  Using Symmetric Orthogonalization.

  SCF Guess: Generalized Wolfsberg-Helmholtz.

  ==> Iterations <==

                        Total Energy        Delta E     RMS |[F,P]|

   @ROHF iter   1:   -75.17058288696667   -7.51706e+01   1.92559e-01 
   @ROHF iter   2:   -75.55686367551435   -3.86281e-01   2.63083e-02 DIIS
   @ROHF iter   3:   -75.58964983699452   -3.27862e-02   9.81670e-03 DIIS
   @ROHF iter   4:   -75.59632739617480   -6.67756e-03   1.60377e-03 DIIS
   @ROHF iter   5:   -75.59659661752289   -2.69221e-04   1.84112e-04 DIIS
   @ROHF iter   6:   -75.59660306023297   -6.44271e-06   4.75072e-05 DIIS
   @ROHF iter   7:   -75.59660356179772   -5.01565e-07   7.61122e-06 DIIS
   @ROHF iter   8:   -75.59660357296669   -1.11690e-08   5.55570e-07 DIIS
   @ROHF iter   9:   -75.59660357303041   -6.37215e-11   4.30321e-08 DIIS
   @ROHF iter  10:   -75.59660357303066   -2.55795e-13   4.81173e-09 DIIS
   @ROHF iter  11:   -75.59660357303066    0.00000e+00   2.33990e-10 DIIS
   @ROHF iter  12:   -75.59660357303068   -1.42109e-14   3.62759e-11 DIIS

  ==> Post-Iterations <==

[...]
      Number of functions per irrep: [   8    0    2    4 ]

 OEINTS: Overlap, kinetic, potential, dipole, and quadrupole integrals
         stored in file 35.

      Computing two-electron integrals...done
      Computed 1709 non-zero two-electron integrals.
        Stored in file 33.


*** tstart() called on psinet
*** at Mon May 15 15:34:35 2017


	Wfn Parameters:
	--------------------
	Wavefunction         = CCSD
	Number of irreps     = 4
	Number of MOs        = 14
	Number of active MOs = 14
	AO-Basis             = NONE
	Semicanonical        = false
	Reference            = ROHF
	Print Level          = 1

	IRREP	# MOs	# FZDC	# DOCC	# SOCC	# VIRT	# FZVR
	-----	-----	------	------	------	------	------
	 A1	   8	    0	    3	    0	    5	    0
	 A2	   0	    0	    0	    0	    0	    0
	 B1	   2	    0	    0	    1	    1	    0
	 B2	   4	    0	    1	    0	    3	    0
	Transforming integrals...
	IWL integrals will be deleted.
	(OO|OO)...
	Presorting SO-basis two-electron integrals.
	Sorting File: SO Ints (nn|nn) nbuckets = 1
	Transforming the one-electron integrals and constructing Fock matrices
	Starting first half-transformation.
	Sorting half-transformed integrals.
	First half integral transformation complete.
	Starting second half-transformation.
	Two-electron integral transformation complete.
	(OO|OV)...
	Starting second half-transformation.
	Two-electron integral transformation complete.
	(OO|VV)...
	Starting second half-transformation.
	Two-electron integral transformation complete.
	(OV|OO)...
	Starting first half-transformation.
	Sorting half-transformed integrals.
	First half integral transformation complete.
	Starting second half-transformation.
	Two-electron integral transformation complete.
	(OV|OV)...
	Starting second half-transformation.
	Two-electron integral transformation complete.
	(OV|VV)...
	Starting second half-transformation.
	Two-electron integral transformation complete.
	(VV|OO)...
	Starting first half-transformation.
	Sorting half-transformed integrals.
	First half integral transformation complete.
	Starting second half-transformation.
	Two-electron integral transformation complete.
	(VV|OV)...
	Starting second half-transformation.
	Two-electron integral transformation complete.
	(VV|VV)...
	Starting second half-transformation.
	Two-electron integral transformation complete.
	Frozen core energy     =      0.00000000000000

	Size of irrep 0 of <ab|cd> integrals:      0.001 (MW) /      0.012 (MB)
	Size of irrep 1 of <ab|cd> integrals:      0.000 (MW) /      0.001 (MB)
	Size of irrep 2 of <ab|cd> integrals:      0.000 (MW) /      0.003 (MB)
	Size of irrep 3 of <ab|cd> integrals:      0.001 (MW) /      0.007 (MB)
	Total:                                     0.003 (MW) /      0.023 (MB)

	Size of irrep 0 of <ia|bc> integrals:      0.001 (MW) /      0.006 (MB)
	Size of irrep 1 of <ia|bc> integrals:      0.000 (MW) /      0.000 (MB)
	Size of irrep 2 of <ia|bc> integrals:      0.000 (MW) /      0.002 (MB)
	Size of irrep 3 of <ia|bc> integrals:      0.000 (MW) /      0.003 (MB)
	Total:                                     0.001 (MW) /      0.012 (MB)

	Size of irrep 0 of tIjAb amplitudes:       0.000 (MW) /      0.003 (MB)
	Size of irrep 1 of tIjAb amplitudes:       0.000 (MW) /      0.000 (MB)
	Size of irrep 2 of tIjAb amplitudes:       0.000 (MW) /      0.001 (MB)
	Size of irrep 3 of tIjAb amplitudes:       0.000 (MW) /      0.001 (MB)
	Total:                                     0.001 (MW) /      0.006 (MB)

	Nuclear Rep. energy          =      8.64716688815186
	SCF energy                   =    -75.59667211502362
	One-electron energy          =   -117.14010978974406
	Two-electron (AA) energy     =      7.70651836116918
	Two-electron (BB) energy     =      4.66759374158321
	Two-electron (AB) energy     =     20.52215868381612
	Two-electron energy          =    -84.24383900317554
	Reference energy             =    -75.59667211502368

*** tstop() called on psinet at Mon May 15 15:34:35 2017
Module time:
	user time   =       0.01 seconds =       0.00 minutes
	system time =       0.03 seconds =       0.00 minutes
	total time  =          0 seconds =       0.00 minutes
Total time:
	user time   =       6.41 seconds =       0.11 minutes
	system time =       5.45 seconds =       0.09 minutes
	total time  =         14 seconds =       0.23 minutes

*** tstart() called on psinet
*** at Mon May 15 15:34:35 2017

            **************************
            *                        *
            *        CCENERGY        *
            *                        *
            **************************

    Nuclear Rep. energy (wfn)     =    8.647166888151858
    SCF energy          (wfn)     =  -75.596672115023622
    Reference energy    (file100) =  -75.596672115023679

    Input parameters:
    -----------------
    Wave function   =     CCSD
    Reference wfn   =     ROHF
    Brueckner       =     No
    Memory (Mbytes) =     524.3
    Maxiter         =     50
    R_Convergence   =     1.0e-07
    E_Convergence   =     1.0e-08
    Restart         =     Yes
    DIIS            =     Yes
    AO Basis        =     NONE
    ABCD            =     NEW
    Cache Level     =     2
    Cache Type      =     LOW
    Print Level     =     1
    Num. of threads =     1
    # Amps to Print =     10
    Print MP2 Amps? =     No
    Analyze T2 Amps =     No
    Print Pair Ener =     No
    Local CC        =     No
    SCS-MP2         =     False
    SCSN-MP2        =     False
    SCS-CCSD        =     False

    Using old T1 amplitudes.
    Using old T2 amplitudes.
                Solving CC Amplitude Equations
                ------------------------------
  Iter             Energy              RMS        T1Diag      D1Diag    New D1Diag    D2Diag
  ----     ---------------------    ---------   ----------  ----------  ----------   --------
     0        -0.062170164553091    0.000e+00    0.008326    0.016342    0.016342    0.000000
     1        -0.114628176879048    1.627e-01    0.008607    0.020114    0.020114    0.000000
     2        -0.116165888974002    3.386e-02    0.008837    0.017524    0.017524    0.000000
     3        -0.116967154817595    9.187e-03    0.008341    0.016254    0.016254    0.000000
     4        -0.117052745990821    2.782e-03    0.008295    0.016149    0.016149    0.000000
     5        -0.117128452190820    9.566e-04    0.008251    0.016098    0.016098    0.000000
     6        -0.117133839674115    2.423e-04    0.008257    0.016130    0.016130    0.000000
     7        -0.117136236851997    8.947e-05    0.008258    0.016136    0.016136    0.000000
     8        -0.117137879558390    4.391e-05    0.008259    0.016137    0.016137    0.000000
     9        -0.117138836601696    1.337e-05    0.008259    0.016136    0.016136    0.000000
    10        -0.117138974603816    2.619e-06    0.008259    0.016136    0.016136    0.000000
    11        -0.117138976288779    5.353e-07    0.008259    0.016136    0.016136    0.000000
    12        -0.117138978403052    1.512e-07    0.008259    0.016136    0.016136    0.000000
    13        -0.117138977672329    3.951e-08    0.008259    0.016136    0.016136    0.000000

    Iterations converged.


    Largest TIA Amplitudes:
              3   5        -0.0113988844
              1   0        -0.0102859054
              1   2        -0.0095030340
              2   0         0.0083153222
              4   8         0.0070960665
              4   9        -0.0070682567
              1   3         0.0034872582
              2   1         0.0031202499
              1   1         0.0027264719
              2   3         0.0024621908

    Largest Tia Amplitudes:
              4   7         0.0321062674
              1   0         0.0209978028
              2   0         0.0171925111
              2   1        -0.0168047645
              1   2         0.0147755311
              4   9         0.0101495527
              2   3         0.0063791869
              1   1         0.0051303935
              4   8         0.0039696045
              2   2         0.0020776857

    Largest TIJAB Amplitudes:
      3   2   5   1        -0.0233338243
      4   3   7   5         0.0195343676
      4   2   7   1         0.0177278255
      4   3   9   5         0.0147067247
      4   2   9   1         0.0134723398
      4   3   8   5        -0.0129131576
      3   2   5   0         0.0120955315
      4   2   8   1        -0.0113112139
      3   1   5   0         0.0111375516
      3   1   5   3        -0.0100753957

    Largest Tijab Amplitudes:
      4   2   7   1         0.0181308347
      4   2   9   1         0.0130073223
      4   2   8   1        -0.0108998958
      2   1   1   0         0.0091927993
      4   2   7   0        -0.0090597025
      2   1   3   1         0.0084860034
      4   1   8   0         0.0073286524
      4   1   7   0        -0.0071186233
      4   1   7   3         0.0064364904
      4   2   8   0         0.0062958850

    Largest TIjAb Amplitudes:
      4   4   7   7        -0.0526325717
      2   2   1   1        -0.0435528191
      4   4   9   7        -0.0352987188
      4   4   7   9        -0.0347954454
      3   4   7   6         0.0323852666
      3   2   5   1        -0.0313728255
      3   1   0   6         0.0301770100
      4   4   9   9        -0.0299912925
      2   4   1   7         0.0271710990
      4   2   7   1         0.0268068262

    SCF energy       (wfn)                    =  -75.596672115023622
    Reference energy (file100)                =  -75.596672115023679

    Opposite-spin CCSD correlation energy     =   -0.099142116946341
    Same-spin CCSD correlation energy         =   -0.016303560688748
    CCSD correlation energy                   =   -0.117138977672329
      * CCSD total energy                     =  -75.713811092696005


*** tstop() called on psinet at Mon May 15 15:34:35 2017
Module time:
	user time   =       0.13 seconds =       0.00 minutes
	system time =       0.21 seconds =       0.00 minutes
	total time  =          0 seconds =       0.00 minutes
Total time:
	user time   =       6.54 seconds =       0.11 minutes
	system time =       5.66 seconds =       0.09 minutes
	total time  =         14 seconds =       0.23 minutes

*** tstart() called on psinet
*** at Mon May 15 15:34:35 2017


			**************************
			*                        *
			*         CCHBAR         *
			*                        *
			**************************


*** tstop() called on psinet at Mon May 15 15:34:35 2017
Module time:
	user time   =       0.02 seconds =       0.00 minutes
	system time =       0.03 seconds =       0.00 minutes
	total time  =          0 seconds =       0.00 minutes
Total time:
	user time   =       6.56 seconds =       0.11 minutes
	system time =       5.69 seconds =       0.09 minutes
	total time  =         14 seconds =       0.23 minutes

*** tstart() called on psinet
*** at Mon May 15 15:34:35 2017


	**********************************************************
	*  CCEOM: An Equation of Motion Coupled Cluster Program  *
	**********************************************************

	Nuclear Rep. energy (wfn)     =    8.647166888151858
	SCF energy          (wfn)     =  -75.596672115023622
	Reference energy    (file100) =  -75.596672115023679
	CCSD energy         (file100) =   -0.117138977672329

	Input parameters:
	-----------------
	Reference wfn   =    ROHF
	Reference EOM wfn=    ROHF
	Memory (Mbytes) =  524.3
	ABCD            =     NEW
	Cache Level     =    2
	Cache Type      =     LRU
	Num. of threads =     1
	Local CC        =     No


	CCEOM parameters:
	-----------------
	States sought per irrep     = A1 0, A2 0, B1 1, B2 0,
	Max. number of iterations   =    80
	Vectors stored per root     =    12
	Print HbarSS iterations?    =     0
	Excitation range for HBarSS =     2
	Eigenvalue tolerance        = 1.0e-08
	Eigenvalue toleranceSS      = 1.0e-06
	Residual vector tolerance   = 1.0e-06
	Residual vector toleranceSS = 1.0e-06
	Complex tolerance           = 1.0e-12
	Root for properties         =     1
	Sym of state for properties =     A1
	Guess vectors taken from    = SINGLES
	Restart EOM CC3             = NO
	Collapse with last vector   = YES


Symmetry of ground state: B1
Symmetry of excited state: B1
Symmetry of right eigenvector: A1
Obtaining initial guess from singles-singles block of Hbar...Done.

Iter=1    L=1     Root    EOM Energy     Delta E   Res. Norm    Conv?
                     1   0.5244675716   5.24e-01    3.36e-01      N
Iter=2    L=2     Root    EOM Energy     Delta E   Res. Norm    Conv?
                     1   0.4678544002  -5.66e-02    8.11e-02      N
Iter=3    L=3     Root    EOM Energy     Delta E   Res. Norm    Conv?
                     1   0.4601005027  -7.75e-03    7.00e-02      N
Iter=4    L=4     Root    EOM Energy     Delta E   Res. Norm    Conv?
                     1   0.4543023161  -5.80e-03    6.33e-02      N
Iter=5    L=5     Root    EOM Energy     Delta E   Res. Norm    Conv?
                     1   0.4521270030  -2.18e-03    3.46e-02      N
Iter=6    L=6     Root    EOM Energy     Delta E   Res. Norm    Conv?
                     1   0.4513061581  -8.21e-04    2.32e-02      N
Iter=7    L=7     Root    EOM Energy     Delta E   Res. Norm    Conv?
                     1   0.4507472486  -5.59e-04    2.02e-02      N
Iter=8    L=8     Root    EOM Energy     Delta E   Res. Norm    Conv?
                     1   0.4505471156  -2.00e-04    1.10e-02      N
Iter=9    L=9     Root    EOM Energy     Delta E   Res. Norm    Conv?
                     1   0.4505040330  -4.31e-05    5.19e-03      N
Iter=10   L=10    Root    EOM Energy     Delta E   Res. Norm    Conv?
                     1   0.4504775045  -2.65e-05    4.28e-03      N
Iter=11   L=11    Root    EOM Energy     Delta E   Res. Norm    Conv?
                     1   0.4504674407  -1.01e-05    2.08e-03      N
Iter=12   L=12    Root    EOM Energy     Delta E   Res. Norm    Conv?
                     1   0.4504643595  -3.08e-06    7.76e-04      N
Iter=13   L=2     Root    EOM Energy     Delta E   Res. Norm    Conv?
                     1   0.4504643595   4.44e-16    7.76e-04      N
Iter=14   L=3     Root    EOM Energy     Delta E   Res. Norm    Conv?
                     1   0.4504643394  -2.02e-08    6.28e-04      N
Iter=15   L=4     Root    EOM Energy     Delta E   Res. Norm    Conv?
                     1   0.4504628681  -1.47e-06    4.08e-04      N
Iter=16   L=5     Root    EOM Energy     Delta E   Res. Norm    Conv?
                     1   0.4504625561  -3.12e-07    1.58e-04      N
Iter=17   L=6     Root    EOM Energy     Delta E   Res. Norm    Conv?
                     1   0.4504621610  -3.95e-07    6.79e-05      N
Iter=18   L=7     Root    EOM Energy     Delta E   Res. Norm    Conv?
                     1   0.4504621504  -1.06e-08    2.96e-05      N
Iter=19   L=8     Root    EOM Energy     Delta E   Res. Norm    Conv?
                     1   0.4504621632   1.28e-08    1.04e-05      N
Iter=20   L=9     Root    EOM Energy     Delta E   Res. Norm    Conv?
                     1   0.4504621581  -5.06e-09    4.43e-06      N
Iter=21   L=10    Root    EOM Energy     Delta E   Res. Norm    Conv?
                     1   0.4504621543  -3.82e-09    3.44e-06      N
Iter=22   L=11    Root    EOM Energy     Delta E   Res. Norm    Conv?
                     1   0.4504621540  -2.65e-10    3.55e-06      N
Iter=23   L=12    Root    EOM Energy     Delta E   Res. Norm    Conv?
                     1   0.4504621477  -6.38e-09    1.29e-06      N
Iter=24   L=2     Root    EOM Energy     Delta E   Res. Norm    Conv?
                     1   0.4504621477   1.16e-13    1.29e-06      N
Iter=25   L=3     Root    EOM Energy     Delta E   Res. Norm    Conv?
                     1   0.4504621474  -2.60e-10    3.39e-07      Y
Collapsing to only 1 vector(s).

Procedure converged for 1 root(s).
Energy written to CC_INFO:Etot  -75.2633489453
States per irrep written to CC_INFO.
<R|R> =   0.9999999999999999
EOM CCSD R0 for root 0 =  -0.00779842300

Final Energetic Summary for Converged Roots of Irrep B1
                     Excitation Energy              Total Energy
                (eV)     (cm^-1)     (au)             (au)
EOM State 1     12.258    98865.0   0.4504621474   -75.263348945290

Largest components of excited wave function #1:
 RIA (libdpd indices) : (cscf notation)
         2 >   0      :       3a1 >    4a1 :   -0.5428262386
         0 >   0      :       1b2 >    2b2 :   -0.1260840184
         2 >   2      :       3a1 >    6a1 :   -0.0659296151
         2 >   1      :       3a1 >    5a1 :    0.0578295552
         1 >   0      :       2a1 >    4a1 :   -0.0360528694
 Ria (libdpd indices) : (cscf notation)
         2 >   0      :       3a1 >    4a1 :    0.7132566543
         0 >   0      :       1b2 >    2b2 :    0.1118780281
         2 >   2      :       3a1 >    6a1 :    0.0736572612
         2 >   1      :       3a1 >    5a1 :   -0.0574293153
         0 >   2      :       1b2 >    4b2 :    0.0297283705
 RIjAb (libdpd indices)     : (cscf notation)
        0   2 >   0   1     :    1b1    3a1 >    4a1    1b1 :   -0.3213266408
        0   0 >   0   1     :    1b1    1b2 >    2b2    1b1 :   -0.0848219151
        0   2 >   0   0     :    1b2    3a1 >    2b2    4a1 :   -0.0696519037
        2   2 >   1   0     :    3a1    3a1 >    5a1    4a1 :    0.0553123789
        2   0 >   0   0     :    3a1    1b2 >    4a1    2b2 :    0.0541333410
 RIJAB (libdpd indices)     : (cscf notation)
        0   2 >   0   0     :    1b1    3a1 >    2b1    4a1 :   -0.0281860714
        0   2 >   0   0     :    1b2    3a1 >    2b2    4a1 :    0.0278311827
        0   2 >   2   0     :    1b2    3a1 >    4b2    4a1 :    0.0165596339
        2   1 >   2   0     :    3a1    2a1 >    6a1    4a1 :   -0.0109583464
        0   2 >   0   2     :    1b2    3a1 >    2b2    6a1 :   -0.0097451754
 Rijab (libdpd indices)     : (cscf notation)
        0   2 >   0   0     :    1b2    3a1 >    2b2    4a1 :   -0.0376311573
        0   2 >   2   0     :    1b2    3a1 >    4b2    4a1 :   -0.0224932098
        2   1 >   1   0     :    3a1    2a1 >    1b1    2b1 :   -0.0163404666
        2   1 >   2   0     :    3a1    2a1 >    6a1    4a1 :    0.0154078867
        0   2 >   0   2     :    1b2    3a1 >    2b2    6a1 :    0.0140777713

	Putting into environment energy for root of R irrep 1 and root 1.
	Putting into environment CURRENT ENERGY:              -75.2633489453

	Total # of sigma evaluations: 23

*** tstop() called on psinet at Mon May 15 15:34:36 2017
Module time:
	user time   =       0.15 seconds =       0.00 minutes
	system time =       0.13 seconds =       0.00 minutes
	total time  =          1 seconds =       0.02 minutes
Total time:
	user time   =       6.71 seconds =       0.11 minutes
	system time =       5.82 seconds =       0.10 minutes
	total time  =         15 seconds =       0.25 minutes

-------------------------------------------------------------

  Computing gradient from energies (fd_1_0).
	Using 5-point formula.
	Energy without displacement:  -75.2633489453
	Check energies below for precision!
	Forces are for mass-weighted, symmetry-adapted cartesians (in au).

	 Coord      Energy(-2)        Energy(-1)        Energy(+1)        Energy(+2)            Force
	    0    -75.2659070905    -75.2646312163    -75.2620602484    -75.2607650972      0.2570958255
	    1    -75.2619922513    -75.2626710771    -75.2640258710    -75.2647018744     -0.1354787923

	Gradient written.

-------------------------------------------------------------
  Irrep: 1 Size: 3 x 3

                 1                   2                   3

    1     0.00000000000000     0.18250408832595    -0.09063087805796
    2     0.00000000000000     0.00000000000000     0.18126175611593
    3     0.00000000000000    -0.18250408832595    -0.09063087805796



	UHF-EOM-CCSD finite-diff. (5-pt.) vs. analytic gradient to 10^-7..PASSED

*** Psi4 exiting successfully. Buy a developer a beer!
