    -----------------------------------------------------------------------
          PSI4: An Open-Source Ab Initio Electronic Structure Package
                              PSI 4.0.0-beta3+ Driver

               Git: Rev {master} ae646e4342aedfa6ec06bb2190a62ca091f44c23

    J. M. Turney, A. C. Simmonett, R. M. Parrish, E. G. Hohenstein,
    F. A. Evangelista, J. T. Fermann, B. J. Mintz, L. A. Burns, J. J. Wilke,
    M. L. Abrams, N. J. Russ, M. L. Leininger, C. L. Janssen, E. T. Seidl,
    W. D. Allen, H. F. Schaefer, R. A. King, E. F. Valeev, C. D. Sherrill,
    and T. D. Crawford, WIREs Comput. Mol. Sci., (2011) (doi: 10.1002/wcms.93)

                         Additional Contributions by
    A. E. DePrince, M. Saitow, U. Bozkaya, A. Yu. Sokolov
    -----------------------------------------------------------------------

    Process ID:   5538
    PSI4DATADIR: /home/ugur/psi4/lib

    Using LocalCommunicator (Number of processes = 1)

    Memory level set to 256.000 MB

  ==> Input File <==

--------------------------------------------------------------------------
#! OMP2 cc-pVDZ gradient for the NO radical

ref_vals = [                                                       #TEST
             [ 0.000000000000,  0.000000000000,  0.047447741338],  #TEST
             [ 0.000000000000,  0.000000000000, -0.047447741339]   #TEST
           ]                                                       #TEST
ref = PsiMod.Matrix(2, 3)                                          #TEST
ref.set(ref_vals)

memory 250 mb

molecule no {
0 2
n
o 1 1.158
}

set {
  basis cc-pvdz
  reference uhf
  guess gwh
}
gradient('omp2')

grad = PsiMod.wavefunction().gradient()                           #TEST
compare_matrices(ref, grad, 6, "Analytic gradients")              #TEST

--------------------------------------------------------------------------

  Memory set to 250.000 MiB by Python script.

*** tstart() called on bozkaya
*** at Fri Apr  5 08:48:25 2013


         ---------------------------------------------------------
                                   SCF
            by Justin Turney, Rob Parrish, and Andy Simmonett
                              UHF Reference
                        4 Threads,    250 MiB Core
         ---------------------------------------------------------

  ==> Geometry <==

    Molecular point group: c2v
    Full point group: C_inf_v

    Geometry (in Angstrom), charge = 0, multiplicity = 2:

       Center              X                  Y                   Z       
    ------------   -----------------  -----------------  -----------------
           N          0.000000000000     0.000000000000    -0.617445101450
           O          0.000000000000     0.000000000000     0.540554898550

  Running in c2v symmetry.

  Nuclear repulsion =   25.590607669291881

  Charge       = 0
  Multiplicity = 2
  Electrons    = 15
  Nalpha       = 8
  Nbeta        = 7

  ==> Algorithm <==

  SCF Algorithm Type is PK.
  DIIS enabled.
  MOM disabled.
  Fractional occupation disabled.
  Guess Type is GWH.
  Energy threshold   = 1.00e-10
  Density threshold  = 1.00e-10
  Integral threshold = 0.00e+00

  ==> Primary Basis <==

  Basis Set: CC-PVDZ
    Number of shells: 12
    Number of basis function: 28
    Number of Cartesian functions: 30
    Spherical Harmonics?: true
    Max angular momentum: 2

  ==> Pre-Iterations <==

   -------------------------------------------------------
    Irrep   Nso     Nmo     Nalpha   Nbeta   Ndocc  Nsocc
   -------------------------------------------------------
     A1        14      14       0       0       0       0
     A2         2       2       0       0       0       0
     B1         6       6       0       0       0       0
     B2         6       6       0       0       0       0
   -------------------------------------------------------
    Total      28      28       8       7       7       1
   -------------------------------------------------------

  ==> Integral Setup <==

 MINTS: Wrapper to libmints.
   by Justin Turney

   Calculation information:
      Number of atoms:                   2
      Number of AO shells:              12
      Number of SO shells:              12
      Number of primitives:             44
      Number of atomic orbitals:        30
      Number of basis functions:        28

      Number of irreps:                  4
      Number of functions per irrep: [  14    2    6    6 ]

      Overlap, kinetic, potential, dipole, and quadrupole integrals
        stored in file 35.

      Computing two-electron integrals...done
      Computed 19125 non-zero two-electron integrals.
        Stored in file 33.

	Batch   1 pq = [       0,     150] index = [             0,11325]
  ==> DiskJK: Disk-Based J/K Matrices <==

    J tasked:                  Yes
    K tasked:                  Yes
    wK tasked:                  No
    Memory (MB):               178
    Schwarz Cutoff:          0E+00

  Minimum eigenvalue in the overlap matrix is 1.4652171585E-02.
  Using Symmetric Orthogonalization.
  SCF Guess: Generalized Wolfsberg-Helmholtz.

  Guess energy:   -90.20355919647044

  ==> Iterations <==

                        Total Energy        Delta E     RMS |[F,P]|

   @UHF iter   1:  -128.32791740958137   -1.28328e+02   1.49520e-01 
   @UHF iter   2:  -128.82485579451017   -4.96938e-01   6.66388e-02 DIIS
   @UHF iter   3:  -129.16102237052385   -3.36167e-01   3.14831e-02 DIIS
   @UHF iter   4:  -129.25852230067431   -9.74999e-02   1.24509e-03 DIIS
   @UHF iter   5:  -129.25884141262793   -3.19112e-04   4.49610e-04 DIIS
   @UHF iter   6:  -129.25890547098649   -6.40584e-05   2.32732e-04 DIIS
   @UHF iter   7:  -129.25894147789248   -3.60069e-05   1.80126e-04 DIIS
   @UHF iter   8:  -129.25897090061289   -2.94227e-05   1.74253e-04 DIIS
   @UHF iter   9:  -129.25903169567863   -6.07951e-05   1.62784e-04 DIIS
   @UHF iter  10:  -129.25917324892700   -1.41553e-04   1.37986e-04 DIIS
   @UHF iter  11:  -129.25933664025109   -1.63391e-04   1.01832e-04 DIIS
   @UHF iter  12:  -129.25940573607602   -6.90958e-05   4.80316e-05 DIIS
   @UHF iter  13:  -129.25940522542800    5.10648e-07   2.81985e-05 DIIS
   @UHF iter  14:  -129.25940686388466   -1.63846e-06   1.06308e-05 DIIS
   @UHF iter  15:  -129.25940696426383   -1.00379e-07   2.12644e-06 DIIS
   @UHF iter  16:  -129.25940696815252   -3.88869e-09   9.97830e-08 DIIS
   @UHF iter  17:  -129.25940696814945    3.06954e-12   9.43536e-08 DIIS
   @UHF iter  18:  -129.25940696815925   -9.80549e-12   1.52077e-08 DIIS
   @UHF iter  19:  -129.25940696815962   -3.69482e-13   8.03237e-09 DIIS
   @UHF iter  20:  -129.25940696815951    1.13687e-13   9.31273e-10 DIIS
   @UHF iter  21:  -129.25940696815960   -8.52651e-14   4.97250e-10 DIIS
   @UHF iter  22:  -129.25940696815965   -5.68434e-14   2.32577e-11 DIIS

  ==> Post-Iterations <==

   @Spin Contamination Metric:   6.678281452E-02
   @S^2 Expected:                7.500000000E-01
   @S^2 Observed:                8.167828145E-01
   @S   Expected:                5.000000000E-01
   @S   Observed:                5.000000000E-01

	Orbital Energies (a.u.)
	-----------------------

	Alpha Occupied:                                                       

	   1A1   -20.696237     2A1   -15.734941     3A1    -1.606056  
	   4A1    -0.966145     1B1    -0.780126     5A1    -0.690661  
	   1B2    -0.634310     2B1    -0.421983  

	Alpha Virtual:                                                        

	   2B2     0.096478     6A1     0.506760     3B1     0.864536  
	   3B2     0.909531     7A1     0.953911     8A1     0.998675  
	   9A1     1.118926     4B1     1.170522     4B2     1.231989  
	   1A2     1.896838    10A1     1.897013     5B1     1.936783  
	   5B2     1.966382    11A1     1.984427    12A1     2.811868  
	   2A2     2.915669    13A1     2.916251     6B1     3.484302  
	   6B2     3.501833    14A1     3.872453  

	Beta Occupied:                                                        

	   1A1   -20.691201     2A1   -15.698587     3A1    -1.573605  
	   4A1    -0.883194     1B2    -0.657875     5A1    -0.644695  
	   1B1    -0.606674  

	Beta Virtual:                                                         

	   2B2     0.126688     2B1     0.172937     6A1     0.530189  
	   3B2     0.957586     7A1     0.974194     3B1     0.990453  
	   8A1     1.037743     9A1     1.127704     4B2     1.199063  
	   4B1     1.234738     5B2     1.980420    10A1     1.988792  
	   1A2     1.989796    11A1     1.992118     5B1     2.016683  
	  12A1     2.844456     2A2     2.931210    13A1     2.931355  
	   6B2     3.491646     6B1     3.530662    14A1     3.881342  

	Final Occupation by Irrep:
	         A1    A2    B1    B2 
	DOCC [     5,    0,    1,    1 ]
	SOCC [     0,    0,    1,    0 ]

  Energy converged.

  @UHF Final Energy:  -129.25940696815965

   => Energetics <=

    Nuclear Repulsion Energy =             25.5906076692918809
    One-Electron Energy =                -227.4137399910334238
    Two-Electron Energy =                  72.5637253535819013
    DFT Exchange-Correlation Energy =       0.0000000000000000
    Empirical Dispersion Energy =           0.0000000000000000
    Total Energy =                       -129.2594069681596523



Properties will be evaluated at   0.000000,   0.000000,   0.000000 Bohr
  ==> Properties <==


Properties computed using the SCF density density matrix
  Nuclear Dipole Moment: (a.u.)
     X:     0.0000      Y:     0.0000      Z:     0.0044

  Electronic Dipole Moment: (a.u.)
     X:     0.0000      Y:     0.0000      Z:    -0.1285

  Dipole Moment: (a.u.)
     X:     0.0000      Y:     0.0000      Z:    -0.1241     Total:     0.1241

  Dipole Moment: (Debye)
     X:     0.0000      Y:     0.0000      Z:    -0.3155     Total:     0.3155


  Saving occupied orbitals to File 180.

*** tstop() called on bozkaya at Fri Apr  5 08:48:26 2013
Module time:
	user time   =       0.47 seconds =       0.01 minutes
	system time =       0.01 seconds =       0.00 minutes
	total time  =          1 seconds =       0.02 minutes
Total time:
	user time   =       0.47 seconds =       0.01 minutes
	system time =       0.01 seconds =       0.00 minutes
	total time  =          1 seconds =       0.02 minutes

*** tstart() called on bozkaya
*** at Fri Apr  5 08:48:26 2013


 ============================================================================== 
 ============================================================================== 
 ============================================================================== 

              Program Written by Ugur Bozkaya,
              Latest Revision April 5, 2013.

 ============================================================================== 
 ============================================================================== 
 ============================================================================== 

	RMS orbital gradient is changed to :     1.00e-06
	MAX orbital gradient is changed to :     3.16e-05
	MO spaces per irreps... 

	IRREP   FC   AOCC  BOCC  AVIR    BVIR  FV 
	==========================================
	  A1     0     5     5     9      9     0
	  A2     0     0     0     2      2     0
	  B1     0     2     1     4      5     0
	  B2     0     1     1     5      5     0
	==========================================

	Computing MP2 energy using SCF MOs (Canonical MP2)... 
	============================================================================== 
	Nuclear Repulsion Energy (a.u.)    :    25.59060766929188
	SCF Energy (a.u.)                  :  -129.25940696815965
	REF Energy (a.u.)                  :  -129.25940696815957
	Alpha-Alpha Contribution (a.u.)    :    -0.04426888409882
	Alpha-Beta Contribution (a.u.)     :    -0.23151427843812
	Beta-Beta Contribution (a.u.)      :    -0.04333081020607
	Scaled_SS Correlation Energy (a.u.):    -0.02919989810163
	Scaled_OS Correlation Energy (a.u.):    -0.27781713412574
	SCS-MP2 Total Energy (a.u.)        :  -129.56642400038692
	SOS-MP2 Total Energy (a.u.)        :  -129.56037553012911
	SCSN-MP2 Total Energy (a.u.)       :  -129.41358243013616
	SCS-MI-MP2 Total Energy (a.u.)     :  -129.46501628518811
	SCS-MP2-VDW Total Energy (a.u.)    :  -129.59954509171277
	SOS-PI-MP2 Total Energy (a.u.)     :  -129.58352695797294
	MP2 Correlation Energy (a.u.)      :    -0.31911397274300
	MP2 Total Energy (a.u.)            :  -129.57852094090256
	============================================================================== 

	Number of alpha independent-pairs: 58
	Number of beta independent-pairs : 55

 ============================================================================== 
 ================ Performing OMP2 iterations... =============================== 
 ============================================================================== 
	            Minimizing MP2-L Functional 
	            --------------------------- 
 Iter       E_total           DE           RMS MO Grad      MAX MO Grad      RMS T2    
 ----    ---------------    ----------     -----------      -----------     ---------- 
   1     -129.5885310134     -1.00e-02       1.48e-03         4.58e-02        3.36e-06 
   2     -129.5914617868     -2.93e-03       1.10e-03         3.84e-02        1.48e-06 
   3     -129.5926611366     -1.20e-03       9.04e-04         3.15e-02        1.16e-06 
   4     -129.5931924085     -5.31e-04       7.97e-04         2.43e-02        4.53e-07 
   5     -129.5934295785     -2.37e-04       7.19e-04         2.28e-02        5.69e-07 
   6     -129.5937895333     -3.60e-04       1.15e-04         3.47e-03        4.29e-07 
   7     -129.5938097870     -2.03e-05       5.43e-05         1.58e-03        1.27e-07 
   8     -129.5938137606     -3.97e-06       2.94e-05         8.54e-04        4.89e-08 
   9     -129.5938148206     -1.06e-06       1.88e-05         5.15e-04        1.74e-08 
  10     -129.5938152719     -4.51e-07       1.54e-05         4.32e-04        1.27e-08 
  11     -129.5938155689     -2.97e-07       1.24e-05         3.21e-04        1.38e-08 
  12     -129.5938157550     -1.86e-07       4.89e-06         1.40e-04        1.18e-08 
  13     -129.5938158101     -5.51e-08       3.47e-06         9.40e-05        9.55e-09 
  14     -129.5938158227     -1.26e-08       2.56e-06         6.85e-05        8.43e-09 
  15     -129.5938158236     -9.36e-10       2.60e-06         6.66e-05        1.98e-09 
  16     -129.5938158255     -1.84e-09       1.79e-06         4.67e-05        4.39e-09 
  17     -129.5938158104      1.51e-08       5.51e-06         1.50e-04        6.85e-09 
  18     -129.5938158152     -4.83e-09       4.79e-06         1.30e-04        1.36e-09 
  19     -129.5938158252     -9.96e-09       2.25e-06         5.13e-05        4.01e-09 
  20     -129.5938158276     -2.39e-09       2.61e-07         6.17e-06        4.00e-09 

 ============================================================================== 
 ======================== OMP2 ITERATIONS ARE CONVERGED ======================= 
 ============================================================================== 

	Computing MP2 energy using optimized MOs... 
	============================================================================== 
	Nuclear Repulsion Energy (a.u.)    :    25.59060766929188
	SCF Energy (a.u.)                  :  -129.25940696815965
	REF Energy (a.u.)                  :  -129.24958551005506
	Alpha-Alpha Contribution (a.u.)    :    -0.04502982760825
	Alpha-Beta Contribution (a.u.)     :    -0.24864564793279
	Beta-Beta Contribution (a.u.)      :    -0.05055481572974
	Scaled_SS Correlation Energy (a.u.):    -0.03186154777933
	Scaled_OS Correlation Energy (a.u.):    -0.29837477751935
	SCS-MP2 Total Energy (a.u.)        :  -129.57982183535375
	SOS-MP2 Total Energy (a.u.)        :  -129.54796028757440
	SCSN-MP2 Total Energy (a.u.)       :  -129.41781448232993
	SCS-MI-MP2 Total Energy (a.u.)     :  -129.47234795913420
	SCS-MP2-VDW Total Energy (a.u.)    :  -129.61564426107802
	SOS-PI-MP2 Total Energy (a.u.)     :  -129.59768941716095
	MP2 Correlation Energy (a.u.)      :    -0.34423029127078
	MP2 Total Energy (a.u.)            :  -129.59381580132583
	============================================================================== 

	============================================================================== 
	================ OMP2 FINAL RESULTS ========================================== 
	============================================================================== 
	Nuclear Repulsion Energy (a.u.)    :    25.59060766929188
	SCF Energy (a.u.)                  :  -129.25940696815965
	REF Energy (a.u.)                  :  -129.24958551005506
	SCS-OMP2 Total Energy (a.u.)       :  -129.57982183535375
	SOS-OMP2 Total Energy (a.u.)       :  -129.54796028757440
	SCSN-OMP2 Total Energy (a.u.)      :  -129.41781448232993
	SCS-MI-OMP2 Total Energy (a.u.)    :  -129.47234795913420
	SCS-OMP2-VDW Total Energy (a.u.)   :  -129.61564426107802
	SOS-PI-OMP2 Total Energy (a.u.)    :  -129.59768941716095
	OMP2 Correlation Energy (a.u.)     :    -0.33440885941556
	Eomp2 - Eref (a.u.)                :    -0.34423031752016
	OMP2 Total Energy (a.u.)           :  -129.59381582757521
	============================================================================== 

	Analytic gradient computation is starting...
	Necessary information has been sent to DERIV, which will take care of the rest.

*** tstop() called on bozkaya at Fri Apr  5 08:48:28 2013
Module time:
	user time   =       2.18 seconds =       0.04 minutes
	system time =       0.65 seconds =       0.01 minutes
	total time  =          2 seconds =       0.03 minutes
Total time:
	user time   =       2.65 seconds =       0.04 minutes
	system time =       0.66 seconds =       0.01 minutes
	total time  =          3 seconds =       0.05 minutes

*** tstart() called on bozkaya
*** at Fri Apr  5 08:48:28 2013

 DERIV: Derivative code.
   by Justin Turney

  Cartesian Displacement SALCs
  By SALC:
  Number of SALCs: 2, nirreps: 1
  Project out translations: False
  Project out rotations: False
	irrep = 0, ncomponent = 1
		0: atom 0, direction z, coef 1.000000
	irrep = 0, ncomponent = 1
		0: atom 1, direction z, coef 1.000000

  By Atomic Center:
  Number of atomic centers: 2
   Atomic Center 0:
	x component, size = 0
	y component, size = 0
	z component, size = 1
		0: salc 0, irrep 0, coef 1.000000
   Atomic Center 1:
	x component, size = 0
	y component, size = 0
	z component, size = 1
		0: salc 1, irrep 0, coef 1.000000

    Molecular point group: c2v
    Full point group: C_inf_v

    Geometry (in Bohr), charge = 0, multiplicity = 2:

       Center              X                  Y                   Z       
    ------------   -----------------  -----------------  -----------------
           N          0.000000000000     0.000000000000    -1.166802143832
           O          0.000000000000     0.000000000000     1.021500718049

	Presorting MO-basis TPDMs.
	Sorting File: MO TPDM (AA|AA) nbuckets = 1
	Sorting File: MO TPDM (AA|aa) nbuckets = 1
	Sorting File: MO TPDM (aa|aa) nbuckets = 1
	Starting first half-transformation.
	Sorting half-transformed TPDMs.
	First half integral transformation complete.


  -Nuclear Repulsion Energy 1st Derivatives:
     Atom            X                  Y                   Z
    ------   -----------------  -----------------  -----------------
       1        0.000000000000     0.000000000000    11.694271444350
       2        0.000000000000     0.000000000000   -11.694271444350


  -One-electron contribution to gradient:
     Atom            X                  Y                   Z
    ------   -----------------  -----------------  -----------------
       1        0.000000000000     0.000000000000   -26.184337409972
       2        0.000000000000     0.000000000000    26.184337409972


  -Lagrangian contribution to gradient:
     Atom            X                  Y                   Z
    ------   -----------------  -----------------  -----------------
       1        0.000000000000     0.000000000000     0.799634512671
       2        0.000000000000     0.000000000000    -0.799634512671


  -Two-electron contribution to gradient:
     Atom            X                  Y                   Z
    ------   -----------------  -----------------  -----------------
       1        0.000000000000     0.000000000000    13.737879194290
       2        0.000000000000     0.000000000000   -13.737879194290


  -Total gradient:
     Atom            X                  Y                   Z
    ------   -----------------  -----------------  -----------------
       1        0.000000000000     0.000000000000     0.047447741338
       2        0.000000000000     0.000000000000    -0.047447741339


*** tstop() called on bozkaya at Fri Apr  5 08:48:28 2013
Module time:
	user time   =       0.50 seconds =       0.01 minutes
	system time =       0.02 seconds =       0.00 minutes
	total time  =          0 seconds =       0.00 minutes
Total time:
	user time   =       3.15 seconds =       0.05 minutes
	system time =       0.68 seconds =       0.01 minutes
	total time  =          3 seconds =       0.05 minutes

*** PSI4 exiting successfully. Buy a developer a beer!
