[Molden Format]
[Atoms] (AU)
S    1   16           0.0000000000         0.0000000000        -0.1012122809
H    2    1           0.0000000000        -1.8974706977         1.6054206553
H    3    1           0.0000000000         1.8974706977         1.6054206553
[GTO]
  1 0
 s    6  1.00
    21917.1000000000         0.0018690000
     3301.4900000000         0.0142300000
      754.1460000000         0.0696960000
      212.7110000000         0.2384870000
       67.9896000000         0.4833070000
       23.0515000000         0.3380740000
 s    6  1.00
      423.7350000000        -0.0023767000
      100.7100000000        -0.0316930000
       32.1599000000        -0.1133170000
       11.8079000000         0.0560900000
        4.6311000000         0.5922550000
        1.8702500000         0.4550060000
 p    6  1.00
      423.7350000000         0.0040610000
      100.7100000000         0.0306810000
       32.1599000000         0.1304520000
       11.8079000000         0.3272050000
        4.6311000000         0.4528510000
        1.8702500000         0.2560420000
 s    3  1.00
        2.6158400000        -0.2503740000
        0.9221670000         0.0669570000
        0.3412870000         1.0545100000
 p    3  1.00
        2.6158400000        -0.0145110000
        0.9221670000         0.3102630000
        0.3412870000         0.7544830000
 s    1  1.00
        0.1171670000         1.0000000000
 p    1  1.00
        0.1171670000         1.0000000000

  2 0
 s    3  1.00
       18.7311370000         0.0334946000
        2.8253937000         0.2347269500
        0.6401217000         0.8137573300
 s    1  1.00
        0.1612778000         1.0000000000

  3 0
 s    3  1.00
       18.7311370000         0.0334946000
        2.8253937000         0.2347269500
        0.6401217000         0.8137573300
 s    1  1.00
        0.1612778000         1.0000000000

[MO]
 Sym= A1
 Ene=        -9.1954784324e+01
 Spin= Alpha
 Occup=         2.0000000000e+00
  1         9.9667846812e-01
  2         1.2282086051e-02
  3         0.0000000000e+00
  4         0.0000000000e+00
  5         1.2718560888e-04
  6        -3.8142505824e-03
  7         0.0000000000e+00
  8         0.0000000000e+00
  9        -1.3948556952e-04
 10         2.8689738472e-03
 11         0.0000000000e+00
 12         0.0000000000e+00
 13         6.3162444641e-04
 14         2.7873771408e-04
 15        -8.3764497352e-04
 16         2.7873771408e-04
 17        -8.3764497352e-04
 Sym= A1
 Ene=        -8.9765499412e+00
 Spin= Alpha
 Occup=         2.0000000000e+00
  1         2.8183383125e-01
  2        -1.0305154425e+00
  3         0.0000000000e+00
  4         0.0000000000e+00
  5        -1.4155035939e-02
  6        -2.1250585951e-02
  7         0.0000000000e+00
  8         0.0000000000e+00
  9        -2.0002828056e-03
 10         8.7290942041e-03
 11         0.0000000000e+00
 12         0.0000000000e+00
 13         2.3721969622e-03
 14         5.4377120986e-04
 15        -2.3706369182e-03
 16         5.4377120986e-04
 17        -2.3706369182e-03
 Sym= B2
 Ene=        -6.6584628254e+00
 Spin= Alpha
 Occup=         2.0000000000e+00
  1         0.0000000000e+00
  2         0.0000000000e+00
  3         0.0000000000e+00
  4         9.9299328094e-01
  5         0.0000000000e+00
  6         0.0000000000e+00
  7         0.0000000000e+00
  8         2.3301272002e-02
  9         0.0000000000e+00
 10         0.0000000000e+00
 11         0.0000000000e+00
 12        -6.9004371699e-03
 13         0.0000000000e+00
 14         8.4508082225e-04
 15        -1.8142048852e-03
 16        -8.4508082225e-04
 17         1.8142048852e-03
 Sym= A1
 Ene=        -6.6562788962e+00
 Spin= Alpha
 Occup=         2.0000000000e+00
  1         4.2644752194e-03
  2        -1.5848579711e-02
  3         0.0000000000e+00
  4         0.0000000000e+00
  5         9.9315092149e-01
  6         2.8621907665e-03
  7         0.0000000000e+00
  8         0.0000000000e+00
  9         2.2413944886e-02
 10        -3.4803704759e-03
 11         0.0000000000e+00
 12         0.0000000000e+00
 13        -6.7090423104e-03
 14        -8.1463116803e-04
 15         2.0783364234e-03
 16        -8.1463116803e-04
 17         2.0783364234e-03
 Sym= B1
 Ene=        -6.6530196701e+00
 Spin= Alpha
 Occup=         2.0000000000e+00
  1         0.0000000000e+00
  2         0.0000000000e+00
  3         9.9388655485e-01
  4         0.0000000000e+00
  5         0.0000000000e+00
  6         0.0000000000e+00
  7         2.0291537539e-02
  8         0.0000000000e+00
  9         0.0000000000e+00
 10         0.0000000000e+00
 11        -4.6826945025e-03
 12         0.0000000000e+00
 13         0.0000000000e+00
 14         0.0000000000e+00
 15         0.0000000000e+00
 16         0.0000000000e+00
 17         0.0000000000e+00
 Sym= A1
 Ene=        -9.9899691346e-01
 Spin= Alpha
 Occup=         2.0000000000e+00
  1         6.9334950676e-02
  2        -3.2045221838e-01
  3         0.0000000000e+00
  4         0.0000000000e+00
  5        -5.5294742071e-02
  6         6.5400683354e-01
  7         0.0000000000e+00
  8         0.0000000000e+00
  9         1.3587635979e-01
 10         2.4228092125e-01
 11         0.0000000000e+00
 12         0.0000000000e+00
 13         1.4428999670e-02
 14         1.4501815811e-01
 15         5.4829114009e-02
 16         1.4501815811e-01
 17         5.4829114009e-02
 Sym= B2
 Ene=        -5.9609290029e-01
 Spin= Alpha
 Occup=         2.0000000000e+00
  1         0.0000000000e+00
  2         0.0000000000e+00
  3         0.0000000000e+00
  4         2.0131839633e-01
  5         0.0000000000e+00
  6         0.0000000000e+00
  7         0.0000000000e+00
  8        -5.1271917549e-01
  9         0.0000000000e+00
 10         0.0000000000e+00
 11         0.0000000000e+00
 12        -8.1451124308e-02
 13         0.0000000000e+00
 14         2.5042320200e-01
 15         2.6301015533e-01
 16        -2.5042320200e-01
 17        -2.6301015533e-01
 Sym= A1
 Ene=        -4.8643577312e-01
 Spin= Alpha
 Occup=         2.0000000000e+00
  1         3.0434548399e-02
  2        -1.4281432574e-01
  3         0.0000000000e+00
  4         0.0000000000e+00
  5         2.1600597007e-01
  6         3.0841108126e-01
  7         0.0000000000e+00
  8         0.0000000000e+00
  9        -5.5853846953e-01
 10         3.3191255471e-01
 11         0.0000000000e+00
 12         0.0000000000e+00
 13        -2.1780785987e-01
 14        -1.5744687587e-01
 15        -1.9466562071e-01
 16        -1.5744687587e-01
 17        -1.9466562071e-01
 Sym= B1
 Ene=        -3.9145203443e-01
 Spin= Alpha
 Occup=         2.0000000000e+00
  1         0.0000000000e+00
  2         0.0000000000e+00
  3         2.6050457031e-01
  4         0.0000000000e+00
  5         0.0000000000e+00
  6         0.0000000000e+00
  7        -6.9523174150e-01
  8         0.0000000000e+00
  9         0.0000000000e+00
 10         0.0000000000e+00
 11        -4.3770850387e-01
 12         0.0000000000e+00
 13         0.0000000000e+00
 14         0.0000000000e+00
 15         0.0000000000e+00
 16         0.0000000000e+00
 17         0.0000000000e+00
 Sym= B2
 Ene=         1.7425367864e-01
 Spin= Alpha
 Occup=         0.0000000000e+00
  1         0.0000000000e+00
  2         0.0000000000e+00
  3         0.0000000000e+00
  4         1.5053520625e-01
  5         0.0000000000e+00
  6         0.0000000000e+00
  7         0.0000000000e+00
  8        -4.1293464556e-01
  9         0.0000000000e+00
 10         0.0000000000e+00
 11         0.0000000000e+00
 12        -1.1932890356e+00
 13         0.0000000000e+00
 14        -1.4752106466e-01
 15        -1.1283436669e+00
 16         1.4752106466e-01
 17         1.1283436669e+00
 Sym= A1
 Ene=         1.8872874722e-01
 Spin= Alpha
 Occup=         0.0000000000e+00
  1         3.4382016366e-02
  2        -1.5202165895e-01
  3         0.0000000000e+00
  4         0.0000000000e+00
  5        -1.2927078972e-01
  6         4.2207498657e-01
  7         0.0000000000e+00
  8         0.0000000000e+00
  9         3.8064770832e-01
 10         1.2875285499e+00
 11         0.0000000000e+00
 12         0.0000000000e+00
 13         1.0999818899e+00
 14        -9.5192786103e-02
 15        -1.3636001503e+00
 16        -9.5192786103e-02
 17        -1.3636001503e+00
 Sym= B2
 Ene=         4.9317594972e-01
 Spin= Alpha
 Occup=         0.0000000000e+00
  1         0.0000000000e+00
  2         0.0000000000e+00
  3         0.0000000000e+00
  4         2.7086747748e-01
  5         0.0000000000e+00
  6         0.0000000000e+00
  7         0.0000000000e+00
  8        -1.1190374066e+00
  9         0.0000000000e+00
 10         0.0000000000e+00
 11         0.0000000000e+00
 12         1.3327043446e+00
 13         0.0000000000e+00
 14         1.5956115200e-01
 15         2.7740932559e-02
 16        -1.5956115200e-01
 17        -2.7740932559e-02
 Sym= A1
 Ene=         5.0128239255e-01
 Spin= Alpha
 Occup=         0.0000000000e+00
  1         4.2285895354e-02
  2        -2.8340059677e-03
  3         0.0000000000e+00
  4         0.0000000000e+00
  5        -1.7855639717e-01
  6         1.2014142694e+00
  7         0.0000000000e+00
  8         0.0000000000e+00
  9         7.7991012359e-01
 10        -2.4758100849e+00
 11         0.0000000000e+00
 12         0.0000000000e+00
 13        -1.7487503914e+00
 14         1.9712468310e-01
 15         9.1167358341e-01
 16         1.9712468310e-01
 17         9.1167358341e-01
 Sym= A1
 Ene=         5.2717268696e-01
 Spin= Alpha
 Occup=         0.0000000000e+00
  1         5.4212621370e-02
  2        -6.3089612145e-02
  3         0.0000000000e+00
  4         0.0000000000e+00
  5         2.0605017014e-01
  6         1.3266373770e+00
  7         0.0000000000e+00
  8         0.0000000000e+00
  9        -8.1634321640e-01
 10        -2.0590997877e+00
 11         0.0000000000e+00
 12         0.0000000000e+00
 13         3.5560976759e-01
 14         1.7415394924e-02
 15         5.6309818497e-01
 16         1.7415394924e-02
 17         5.6309818497e-01
 Sym= B1
 Ene=         5.3105231903e-01
 Spin= Alpha
 Occup=         0.0000000000e+00
  1         0.0000000000e+00
  2         0.0000000000e+00
  3         2.9168824285e-01
  4         0.0000000000e+00
  5         0.0000000000e+00
  6         0.0000000000e+00
  7        -1.1884536281e+00
  8         0.0000000000e+00
  9         0.0000000000e+00
 10         0.0000000000e+00
 11         1.2369706348e+00
 12         0.0000000000e+00
 13         0.0000000000e+00
 14         0.0000000000e+00
 15         0.0000000000e+00
 16         0.0000000000e+00
 17         0.0000000000e+00
 Sym= A1
 Ene=         1.0601241916e+00
 Spin= Alpha
 Occup=         0.0000000000e+00
  1         2.7330323412e-02
  2        -6.6865825482e-02
  3         0.0000000000e+00
  4         0.0000000000e+00
  5        -1.3468949763e-01
  6         5.4259989999e-01
  7         0.0000000000e+00
  8         0.0000000000e+00
  9         4.7152060805e-01
 10        -1.6832488346e+00
 11         0.0000000000e+00
 12         0.0000000000e+00
 13        -9.1338536851e-01
 14        -9.3699522070e-01
 15         1.4745279723e+00
 16        -9.3699522070e-01
 17         1.4745279723e+00
 Sym= B2
 Ene=         1.0792241187e+00
 Spin= Alpha
 Occup=         0.0000000000e+00
  1         0.0000000000e+00
  2         0.0000000000e+00
  3         0.0000000000e+00
  4         1.5463439431e-01
  5         0.0000000000e+00
  6         0.0000000000e+00
  7         0.0000000000e+00
  8        -5.4337445204e-01
  9         0.0000000000e+00
 10         0.0000000000e+00
 11         0.0000000000e+00
 12         9.6892542578e-01
 13         0.0000000000e+00
 14        -9.4556315822e-01
 15         1.4028186053e+00
 16         9.4556315822e-01
 17        -1.4028186053e+00
