[Molden Format]
[Atoms] (AU)
S    1   16           0.0000000000         0.0000000000        -0.1012122809
H    2    1           0.0000000000        -1.8974706977         1.6054206553
H    3    1           0.0000000000         1.8974706977         1.6054206553
[GTO]
  1 0
 s    5  1.00
    35710.0000000000         0.0025650000
     5397.0000000000         0.0194050000
     1250.0000000000         0.0955950000
      359.9000000000         0.3457930000
      119.2000000000         0.6357940000
 s    3  1.00
      119.2000000000         0.1300960000
       43.9800000000         0.6513010000
       17.6300000000         0.2719550000
 s    1  1.00
        5.4200000000         1.0000000000
 s    1  1.00
        2.0740000000         1.0000000000
 s    1  1.00
        0.4246000000         1.0000000000
 s    1  1.00
        0.1519000000         1.0000000000
 p    4  1.00
      212.9000000000         0.0140910000
       49.6000000000         0.0966850000
       15.5200000000         0.3238740000
        5.4760000000         0.6917560000
 p    2  1.00
        5.4760000000        -0.6267370000
        2.0440000000         1.3770510000
 p    1  1.00
        0.5218000000         1.0000000000
 p    1  1.00
        0.1506000000         1.0000000000

  2 0
 s    3  1.00
       19.2406000000         0.0328280000
        2.8992000000         0.2312080000
        0.6534000000         0.8172380000
 s    1  1.00
        0.1776000000         1.0000000000

  3 0
 s    3  1.00
       19.2406000000         0.0328280000
        2.8992000000         0.2312080000
        0.6534000000         0.8172380000
 s    1  1.00
        0.1776000000         1.0000000000

[MO]
 Sym= A1
 Ene=        -9.1973894326e+01
 Spin= Alpha
 Occup=         2.0000000000e+00
  1         3.9606847729e-01
  2         6.7167829610e-01
  3         1.0034770061e-02
  4        -9.2641311233e-04
  5         3.0364452145e-04
  6        -2.0401273683e-04
  7         0.0000000000e+00
  8         0.0000000000e+00
  9         1.1877654744e-04
 10         0.0000000000e+00
 11         0.0000000000e+00
 12        -4.4286519439e-05
 13         0.0000000000e+00
 14         0.0000000000e+00
 15         2.8287689772e-05
 16         0.0000000000e+00
 17         0.0000000000e+00
 18        -4.6448878168e-05
 19        -1.5751449736e-05
 20         5.0734335548e-05
 21        -1.5751449736e-05
 22         5.0734335548e-05
 Sym= A1
 Ene=        -8.9796708367e+00
 Spin= Alpha
 Occup=         2.0000000000e+00
  1         1.1465778197e-01
  2         3.2855979116e-01
  3        -5.5695748733e-01
  4        -5.6420695727e-01
  5        -3.3779437302e-02
  6         1.0168952249e-02
  7         0.0000000000e+00
  8         0.0000000000e+00
  9        -1.2680881140e-02
 10         0.0000000000e+00
 11         0.0000000000e+00
 12        -4.6677422499e-03
 13         0.0000000000e+00
 14         0.0000000000e+00
 15        -9.9453831087e-04
 16         0.0000000000e+00
 17         0.0000000000e+00
 18         1.7865932389e-03
 19         3.2532779459e-04
 20        -2.1900501814e-03
 21         3.2532779459e-04
 22        -2.1900501814e-03
 Sym= B2
 Ene=        -6.6596932309e+00
 Spin= Alpha
 Occup=         2.0000000000e+00
  1         0.0000000000e+00
  2         0.0000000000e+00
  3         0.0000000000e+00
  4         0.0000000000e+00
  5         0.0000000000e+00
  6         0.0000000000e+00
  7         0.0000000000e+00
  8         9.0623947705e-01
  9         0.0000000000e+00
 10         0.0000000000e+00
 11         2.2576228065e-01
 12         0.0000000000e+00
 13         0.0000000000e+00
 14         2.4785524891e-02
 15         0.0000000000e+00
 16         0.0000000000e+00
 17        -4.3736006649e-03
 18         0.0000000000e+00
 19         2.8467701555e-04
 20        -1.3619458366e-03
 21        -2.8467701555e-04
 22         1.3619458366e-03
 Sym= A1
 Ene=        -6.6577436613e+00
 Spin= Alpha
 Occup=         2.0000000000e+00
  1         1.8550906393e-03
  2         5.4210440654e-03
  3        -1.0822154456e-02
  4        -7.3408314808e-03
  5         2.2685318456e-03
  6        -2.4546432813e-03
  7         0.0000000000e+00
  8         0.0000000000e+00
  9         9.0657863664e-01
 10         0.0000000000e+00
 11         0.0000000000e+00
 12         2.2510691600e-01
 13         0.0000000000e+00
 14         0.0000000000e+00
 15         2.4414287449e-02
 16         0.0000000000e+00
 17         0.0000000000e+00
 18        -4.2960913234e-03
 19        -2.3913700284e-04
 20         1.4161267895e-03
 21        -2.3913700284e-04
 22         1.4161267895e-03
 Sym= B1
 Ene=        -6.6549962658e+00
 Spin= Alpha
 Occup=         2.0000000000e+00
  1         0.0000000000e+00
  2         0.0000000000e+00
  3         0.0000000000e+00
  4         0.0000000000e+00
  5         0.0000000000e+00
  6         0.0000000000e+00
  7         9.0758006361e-01
  8         0.0000000000e+00
  9         0.0000000000e+00
 10         2.2403667606e-01
 11         0.0000000000e+00
 12         0.0000000000e+00
 13         2.3284762349e-02
 14         0.0000000000e+00
 15         0.0000000000e+00
 16        -3.0885869149e-03
 17         0.0000000000e+00
 18         0.0000000000e+00
 19         0.0000000000e+00
 20         0.0000000000e+00
 21         0.0000000000e+00
 22         0.0000000000e+00
 Sym= A1
 Ene=        -9.9639348491e-01
 Spin= Alpha
 Occup=         2.0000000000e+00
  1         2.9226550846e-02
  2         8.8973447030e-02
  3        -1.9470077500e-01
  4        -3.3454401045e-01
  5         5.7952388254e-01
  6         4.1576214634e-01
  7         0.0000000000e+00
  8         0.0000000000e+00
  9        -4.7629643011e-02
 10         0.0000000000e+00
 11         0.0000000000e+00
 12        -1.0890031955e-02
 13         0.0000000000e+00
 14         0.0000000000e+00
 15         1.0871302281e-01
 16         0.0000000000e+00
 17         0.0000000000e+00
 18         4.8853821483e-02
 19         1.4318456460e-01
 20         5.0249236699e-02
 21         1.4318456460e-01
 22         5.0249236699e-02
 Sym= B2
 Ene=        -5.9286639756e-01
 Spin= Alpha
 Occup=         2.0000000000e+00
  1         0.0000000000e+00
  2         0.0000000000e+00
  3         0.0000000000e+00
  4         0.0000000000e+00
  5         0.0000000000e+00
  6         0.0000000000e+00
  7         0.0000000000e+00
  8         1.7680914003e-01
  9         0.0000000000e+00
 10         0.0000000000e+00
 11         2.6460728875e-02
 12         0.0000000000e+00
 13         0.0000000000e+00
 14        -3.9675825738e-01
 15         0.0000000000e+00
 16         0.0000000000e+00
 17        -2.1797142849e-01
 18         0.0000000000e+00
 19         2.4680913393e-01
 20         2.4788510363e-01
 21        -2.4680913393e-01
 22        -2.4788510363e-01
 Sym= A1
 Ene=        -4.8398231550e-01
 Spin= Alpha
 Occup=         2.0000000000e+00
  1         1.3181111664e-02
  2         4.0728707655e-02
  3        -9.4924392214e-02
  4        -1.4433441099e-01
  5         2.5525265952e-01
  6         3.7883826662e-01
  7         0.0000000000e+00
  8         0.0000000000e+00
  9         1.9044780866e-01
 10         0.0000000000e+00
 11         0.0000000000e+00
 12         2.2343041444e-02
 13         0.0000000000e+00
 14         0.0000000000e+00
 15        -4.1628127539e-01
 16         0.0000000000e+00
 17         0.0000000000e+00
 18        -3.7576019383e-01
 19        -1.5649021709e-01
 20        -1.6956519774e-01
 21        -1.5649021709e-01
 22        -1.6956519774e-01
 Sym= B1
 Ene=        -3.8917691123e-01
 Spin= Alpha
 Occup=         2.0000000000e+00
  1         0.0000000000e+00
  2         0.0000000000e+00
  3         0.0000000000e+00
  4         0.0000000000e+00
  5         0.0000000000e+00
  6         0.0000000000e+00
  7         2.3060619801e-01
  8         0.0000000000e+00
  9         0.0000000000e+00
 10         2.1846791683e-02
 11         0.0000000000e+00
 12         0.0000000000e+00
 13        -5.0773832496e-01
 14         0.0000000000e+00
 15         0.0000000000e+00
 16        -6.0917676842e-01
 17         0.0000000000e+00
 18         0.0000000000e+00
 19         0.0000000000e+00
 20         0.0000000000e+00
 21         0.0000000000e+00
 22         0.0000000000e+00
 Sym= B2
 Ene=         1.8590018184e-01
 Spin= Alpha
 Occup=         0.0000000000e+00
  1         0.0000000000e+00
  2         0.0000000000e+00
  3         0.0000000000e+00
  4         0.0000000000e+00
  5         0.0000000000e+00
  6         0.0000000000e+00
  7         0.0000000000e+00
  8         1.4336402186e-01
  9         0.0000000000e+00
 10         0.0000000000e+00
 11         7.9001992183e-03
 12         0.0000000000e+00
 13         0.0000000000e+00
 14        -2.8422231860e-01
 15         0.0000000000e+00
 16         0.0000000000e+00
 17        -1.1771878387e+00
 18         0.0000000000e+00
 19        -1.4248421989e-01
 20        -1.0258942100e+00
 21         1.4248421989e-01
 22         1.0258942100e+00
 Sym= A1
 Ene=         1.9491491847e-01
 Spin= Alpha
 Occup=         0.0000000000e+00
  1         1.3553148358e-02
  2         4.1707825694e-02
  3        -9.5599401677e-02
  4        -1.6180217916e-01
  5         2.2676773647e-01
  6         1.2642676806e+00
  7         0.0000000000e+00
  8         0.0000000000e+00
  9        -1.1835946764e-01
 10         0.0000000000e+00
 11         0.0000000000e+00
 12        -8.5281261865e-03
 13         0.0000000000e+00
 14         0.0000000000e+00
 15         2.5357521826e-01
 16         0.0000000000e+00
 17         0.0000000000e+00
 18         1.0597108327e+00
 19        -9.1062707349e-02
 20        -1.2087960926e+00
 21        -9.1062707349e-02
 22        -1.2087960926e+00
 Sym= B2
 Ene=         7.0085557506e-01
 Spin= Alpha
 Occup=         0.0000000000e+00
  1         0.0000000000e+00
  2         0.0000000000e+00
  3         0.0000000000e+00
  4         0.0000000000e+00
  5         0.0000000000e+00
  6         0.0000000000e+00
  7         0.0000000000e+00
  8         2.4131453722e-01
  9         0.0000000000e+00
 10         0.0000000000e+00
 11         9.1759801568e-02
 12         0.0000000000e+00
 13         0.0000000000e+00
 14        -1.1763582849e+00
 15         0.0000000000e+00
 16         0.0000000000e+00
 17         1.2701594018e+00
 18         0.0000000000e+00
 19         3.0866714950e-01
 20        -7.0813709309e-02
 21        -3.0866714950e-01
 22         7.0813709309e-02
 Sym= A1
 Ene=         7.2132501597e-01
 Spin= Alpha
 Occup=         0.0000000000e+00
  1         2.3019175025e-02
  2         6.6787568880e-02
  3        -1.1637296193e-01
  4        -4.5759202411e-01
  5         1.8687278860e+00
  6        -2.0441965512e+00
  7         0.0000000000e+00
  8         0.0000000000e+00
  9         1.8051367283e-01
 10         0.0000000000e+00
 11         0.0000000000e+00
 12         5.7405704998e-02
 13         0.0000000000e+00
 14         0.0000000000e+00
 15        -7.8711904566e-01
 16         0.0000000000e+00
 17         0.0000000000e+00
 18         3.8119884214e-01
 19         1.8702328810e-03
 20         4.2332350107e-01
 21         1.8702328810e-03
 22         4.2332350107e-01
 Sym= B1
 Ene=         7.4619693577e-01
 Spin= Alpha
 Occup=         0.0000000000e+00
  1         0.0000000000e+00
  2         0.0000000000e+00
  3         0.0000000000e+00
  4         0.0000000000e+00
  5         0.0000000000e+00
  6         0.0000000000e+00
  7         2.8269050159e-01
  8         0.0000000000e+00
  9         0.0000000000e+00
 10         8.8310874366e-02
 11         0.0000000000e+00
 12         0.0000000000e+00
 13        -1.2838931341e+00
 14         0.0000000000e+00
 15         0.0000000000e+00
 16         1.1699825336e+00
 17         0.0000000000e+00
 18         0.0000000000e+00
 19         0.0000000000e+00
 20         0.0000000000e+00
 21         0.0000000000e+00
 22         0.0000000000e+00
 Sym= A1
 Ene=         7.5013189367e-01
 Spin= Alpha
 Occup=         0.0000000000e+00
  1         1.4335738347e-02
  2         4.0006468111e-02
  3        -5.3745703989e-02
  4        -3.4739804295e-01
  5         1.5876665234e+00
  6        -2.1891882035e+00
  7         0.0000000000e+00
  8         0.0000000000e+00
  9        -1.7436342834e-01
 10         0.0000000000e+00
 11         0.0000000000e+00
 12        -7.1513219076e-02
 13         0.0000000000e+00
 14         0.0000000000e+00
 15         9.2801394584e-01
 16         0.0000000000e+00
 17         0.0000000000e+00
 18        -1.5547416386e+00
 19         3.5176102842e-01
 20         5.6086307304e-01
 21         3.5176102842e-01
 22         5.6086307304e-01
 Sym= A1
 Ene=         1.0765940625e+00
 Spin= Alpha
 Occup=         0.0000000000e+00
  1         1.2030884657e-02
  2         3.6942432837e-02
  3        -8.3558686503e-02
  4        -1.7906390536e-01
  5         7.8268801005e-01
  6        -1.5098241150e+00
  7         0.0000000000e+00
  8         0.0000000000e+00
  9        -1.4762586337e-01
 10         0.0000000000e+00
 11         0.0000000000e+00
 12        -1.5306033460e-02
 13         0.0000000000e+00
 14         0.0000000000e+00
 15         5.4517694981e-01
 16         0.0000000000e+00
 17         0.0000000000e+00
 18        -8.0201734197e-01
 19        -8.9033216450e-01
 20         1.2727437595e+00
 21        -8.9033216450e-01
 22         1.2727437595e+00
 Sym= B2
 Ene=         1.1380290989e+00
 Spin= Alpha
 Occup=         0.0000000000e+00
  1         0.0000000000e+00
  2         0.0000000000e+00
  3         0.0000000000e+00
  4         0.0000000000e+00
  5         0.0000000000e+00
  6         0.0000000000e+00
  7         0.0000000000e+00
  8         1.6842734815e-01
  9         0.0000000000e+00
 10         0.0000000000e+00
 11         1.7335065881e-02
 12         0.0000000000e+00
 13         0.0000000000e+00
 14        -6.2907710779e-01
 15         0.0000000000e+00
 16         0.0000000000e+00
 17         9.3904584103e-01
 18         0.0000000000e+00
 19        -9.2052412411e-01
 20         1.3110992354e+00
 21         9.2052412411e-01
 22        -1.3110992354e+00
 Sym= B1
 Ene=         5.6648253347e+00
 Spin= Alpha
 Occup=         0.0000000000e+00
  1         0.0000000000e+00
  2         0.0000000000e+00
  3         0.0000000000e+00
  4         0.0000000000e+00
  5         0.0000000000e+00
  6         0.0000000000e+00
  7         3.5454435743e-01
  8         0.0000000000e+00
  9         0.0000000000e+00
 10        -1.4040095197e+00
 11         0.0000000000e+00
 12         0.0000000000e+00
 13         1.1131957141e+00
 14         0.0000000000e+00
 15         0.0000000000e+00
 16        -3.9756685281e-01
 17         0.0000000000e+00
 18         0.0000000000e+00
 19         0.0000000000e+00
 20         0.0000000000e+00
 21         0.0000000000e+00
 22         0.0000000000e+00
 Sym= A1
 Ene=         5.7148207297e+00
 Spin= Alpha
 Occup=         0.0000000000e+00
  1         2.1858827765e-03
  2         8.2916852781e-03
  3        -3.6654207150e-02
  4         1.5721704038e-02
  5         9.4938794181e-02
  6        -2.6109098154e-01
  7         0.0000000000e+00
  8         0.0000000000e+00
  9         3.5115484381e-01
 10         0.0000000000e+00
 11         0.0000000000e+00
 12        -1.4147744374e+00
 13         0.0000000000e+00
 14         0.0000000000e+00
 15         1.1550814796e+00
 16         0.0000000000e+00
 17         0.0000000000e+00
 18        -5.3122035723e-01
 19        -1.0311787982e-01
 20         2.0463406977e-01
 21        -1.0311787982e-01
 22         2.0463406977e-01
 Sym= B2
 Ene=         5.7238474742e+00
 Spin= Alpha
 Occup=         0.0000000000e+00
  1         0.0000000000e+00
  2         0.0000000000e+00
  3         0.0000000000e+00
  4         0.0000000000e+00
  5         0.0000000000e+00
  6         0.0000000000e+00
  7         0.0000000000e+00
  8         3.5074114233e-01
  9         0.0000000000e+00
 10         0.0000000000e+00
 11        -1.4173018371e+00
 12         0.0000000000e+00
 13         0.0000000000e+00
 14         1.1612211204e+00
 15         0.0000000000e+00
 16         0.0000000000e+00
 17        -5.3555280272e-01
 18         0.0000000000e+00
 19         1.3263771156e-01
 20        -2.1391932521e-01
 21        -1.3263771156e-01
 22         2.1391932521e-01
 Sym= A1
 Ene=         7.9469549588e+00
 Spin= Alpha
 Occup=         0.0000000000e+00
  1         1.0559599522e-01
  2         4.4462586035e-01
  3        -2.5094193451e+00
  4         2.9379240103e+00
  5        -1.6680894554e+00
  6         1.0411970719e+00
  7         0.0000000000e+00
  8         0.0000000000e+00
  9        -3.2272412361e-03
 10         0.0000000000e+00
 11         0.0000000000e+00
 12         4.1572904594e-02
 13         0.0000000000e+00
 14         0.0000000000e+00
 15        -7.8729582246e-02
 16         0.0000000000e+00
 17         0.0000000000e+00
 18         2.1827692686e-01
 19         7.5993648575e-02
 20        -2.6585042911e-01
 21         7.5993648575e-02
 22        -2.6585042911e-01
 Sym= A1
 Ene=         1.9557866862e+02
 Spin= Alpha
 Occup=         0.0000000000e+00
  1         1.5203140050e+00
  2        -1.8215779473e+00
  3         1.2992629095e+00
  4        -8.5687409122e-01
  5         3.5177573480e-01
  6        -2.1498072589e-01
  7         0.0000000000e+00
  8         0.0000000000e+00
  9        -3.9409564424e-04
 10         0.0000000000e+00
 11         0.0000000000e+00
 12        -4.8459407680e-03
 13         0.0000000000e+00
 14         0.0000000000e+00
 15         1.3124931632e-02
 16         0.0000000000e+00
 17         0.0000000000e+00
 18        -4.4171175866e-02
 19        -1.2983328228e-02
 20         5.3475948061e-02
 21        -1.2983328228e-02
 22         5.3475948061e-02
