[Molden Format]
[Atoms] (AU)
S    1   16           0.0000000000         0.0000000000        -0.1012122809
H    2    1           0.0000000000        -1.8974706977         1.6054206553
H    3    1           0.0000000000         1.8974706977         1.6054206553
[GTO]
  1 0
 s    6  1.00
    21917.1000000000         0.0018690000
     3301.4900000000         0.0142300000
      754.1460000000         0.0696960000
      212.7110000000         0.2384870000
       67.9896000000         0.4833070000
       23.0515000000         0.3380740000
 s    6  1.00
      423.7350000000        -0.0023767000
      100.7100000000        -0.0316930000
       32.1599000000        -0.1133170000
       11.8079000000         0.0560900000
        4.6311000000         0.5922550000
        1.8702500000         0.4550060000
 p    6  1.00
      423.7350000000         0.0040610000
      100.7100000000         0.0306810000
       32.1599000000         0.1304520000
       11.8079000000         0.3272050000
        4.6311000000         0.4528510000
        1.8702500000         0.2560420000
 s    3  1.00
        2.6158400000        -0.2503740000
        0.9221670000         0.0669570000
        0.3412870000         1.0545100000
 p    3  1.00
        2.6158400000        -0.0145110000
        0.9221670000         0.3102630000
        0.3412870000         0.7544830000
 s    1  1.00
        0.1171670000         1.0000000000
 p    1  1.00
        0.1171670000         1.0000000000

  2 0
 s    3  1.00
       18.7311370000         0.0334946000
        2.8253937000         0.2347269500
        0.6401217000         0.8137573300
 s    1  1.00
        0.1612778000         1.0000000000

  3 0
 s    3  1.00
       18.7311370000         0.0334946000
        2.8253937000         0.2347269500
        0.6401217000         0.8137573300
 s    1  1.00
        0.1612778000         1.0000000000

[MO]
 Sym= A1
 Ene=        -9.1954784313e+01
 Spin= Alpha
 Occup=         2.0000000000e+00
  1         9.9667846810e-01
  2         1.2282086124e-02
  3         0.0000000000e+00
  4         0.0000000000e+00
  5         1.2718547652e-04
  6        -3.8142506519e-03
  7         0.0000000000e+00
  8         0.0000000000e+00
  9        -1.3948552612e-04
 10         2.8689738895e-03
 11         0.0000000000e+00
 12         0.0000000000e+00
 13         6.3162442607e-04
 14         2.7873772126e-04
 15        -8.3764497714e-04
 16         2.7873772126e-04
 17        -8.3764497714e-04
 Sym= A1
 Ene=        -8.9765499369e+00
 Spin= Alpha
 Occup=         2.0000000000e+00
  1         2.8183383121e-01
  2        -1.0305154421e+00
  3         0.0000000000e+00
  4         0.0000000000e+00
  5        -1.4155022090e-02
  6        -2.1250588272e-02
  7         0.0000000000e+00
  8         0.0000000000e+00
  9        -2.0002829593e-03
 10         8.7290956449e-03
 11         0.0000000000e+00
 12         0.0000000000e+00
 13         2.3721973803e-03
 14         5.4377168029e-04
 15        -2.3706373182e-03
 16         5.4377168029e-04
 17        -2.3706373182e-03
 Sym= B2
 Ene=        -6.6584628355e+00
 Spin= Alpha
 Occup=         2.0000000000e+00
  1         0.0000000000e+00
  2         0.0000000000e+00
  3         0.0000000000e+00
  4         9.9299328112e-01
  5         0.0000000000e+00
  6         0.0000000000e+00
  7         0.0000000000e+00
  8         2.3301271304e-02
  9         0.0000000000e+00
 10         0.0000000000e+00
 11         0.0000000000e+00
 12        -6.9004371112e-03
 13         0.0000000000e+00
 14         8.4508030137e-04
 15        -1.8142051230e-03
 16        -8.4508030137e-04
 17         1.8142051230e-03
 Sym= A1
 Ene=        -6.6562788980e+00
 Spin= Alpha
 Occup=         2.0000000000e+00
  1         4.2644714789e-03
  2        -1.5848565497e-02
  3         0.0000000000e+00
  4         0.0000000000e+00
  5         9.9315092100e-01
  6         2.8621919386e-03
  7         0.0000000000e+00
  8         0.0000000000e+00
  9         2.2413947235e-02
 10        -3.4803722952e-03
 11         0.0000000000e+00
 12         0.0000000000e+00
 13        -6.7090436743e-03
 14        -8.1463127836e-04
 15         2.0783371595e-03
 16        -8.1463127836e-04
 17         2.0783371595e-03
 Sym= B1
 Ene=        -6.6530196748e+00
 Spin= Alpha
 Occup=         2.0000000000e+00
  1         0.0000000000e+00
  2         0.0000000000e+00
  3         9.9388655560e-01
  4         0.0000000000e+00
  5         0.0000000000e+00
  6         0.0000000000e+00
  7         2.0291535009e-02
  8         0.0000000000e+00
  9         0.0000000000e+00
 10         0.0000000000e+00
 11        -4.6826935871e-03
 12         0.0000000000e+00
 13         0.0000000000e+00
 14         0.0000000000e+00
 15         0.0000000000e+00
 16         0.0000000000e+00
 17         0.0000000000e+00
 Sym= A1
 Ene=        -9.9899688090e-01
 Spin= Alpha
 Occup=         2.0000000000e+00
  1         6.9334949898e-02
  2        -3.2045221308e-01
  3         0.0000000000e+00
  4         0.0000000000e+00
  5        -5.5294748241e-02
  6         6.5400682764e-01
  7         0.0000000000e+00
  8         0.0000000000e+00
  9         1.3587637744e-01
 10         2.4228085554e-01
 11         0.0000000000e+00
 12         0.0000000000e+00
 13         1.4428962189e-02
 14         1.4501815420e-01
 15         5.4829168900e-02
 16         1.4501815420e-01
 17         5.4829168900e-02
 Sym= B2
 Ene=        -5.9609277631e-01
 Spin= Alpha
 Occup=         2.0000000000e+00
  1         0.0000000000e+00
  2         0.0000000000e+00
  3         0.0000000000e+00
  4         2.0131839356e-01
  5         0.0000000000e+00
  6         0.0000000000e+00
  7         0.0000000000e+00
  8        -5.1271917365e-01
  9         0.0000000000e+00
 10         0.0000000000e+00
 11         0.0000000000e+00
 12        -8.1451034767e-02
 13         0.0000000000e+00
 14         2.5042320914e-01
 15         2.6301022149e-01
 16        -2.5042320914e-01
 17        -2.6301022149e-01
 Sym= A1
 Ene=        -4.8643568709e-01
 Spin= Alpha
 Occup=         2.0000000000e+00
  1         3.0434539754e-02
  2        -1.4281430042e-01
  3         0.0000000000e+00
  4         0.0000000000e+00
  5         2.1600595109e-01
  6         3.0841091915e-01
  7         0.0000000000e+00
  8         0.0000000000e+00
  9        -5.5853836466e-01
 10         3.3191248554e-01
 11         0.0000000000e+00
 12         0.0000000000e+00
 13        -2.1780820188e-01
 14        -1.5744683672e-01
 15        -1.9466542522e-01
 16        -1.5744683672e-01
 17        -1.9466542522e-01
 Sym= B1
 Ene=        -3.9145208299e-01
 Spin= Alpha
 Occup=         2.0000000000e+00
  1         0.0000000000e+00
  2         0.0000000000e+00
  3         2.6050461055e-01
  4         0.0000000000e+00
  5         0.0000000000e+00
  6         0.0000000000e+00
  7        -6.9523191147e-01
  8         0.0000000000e+00
  9         0.0000000000e+00
 10         0.0000000000e+00
 11        -4.3770832698e-01
 12         0.0000000000e+00
 13         0.0000000000e+00
 14         0.0000000000e+00
 15         0.0000000000e+00
 16         0.0000000000e+00
 17         0.0000000000e+00
 Sym= B2
 Ene=         1.7425356334e-01
 Spin= Alpha
 Occup=         0.0000000000e+00
  1         0.0000000000e+00
  2         0.0000000000e+00
  3         0.0000000000e+00
  4         1.5053523268e-01
  5         0.0000000000e+00
  6         0.0000000000e+00
  7         0.0000000000e+00
  8        -4.1293473388e-01
  9         0.0000000000e+00
 10         0.0000000000e+00
 11         0.0000000000e+00
 12        -1.1932889459e+00
 13         0.0000000000e+00
 14        -1.4752111164e-01
 15        -1.1283435574e+00
 16         1.4752111164e-01
 17         1.1283435574e+00
 Sym= A1
 Ene=         1.8872868362e-01
 Spin= Alpha
 Occup=         0.0000000000e+00
  1         3.4382019498e-02
  2        -1.5202168660e-01
  3         0.0000000000e+00
  4         0.0000000000e+00
  5        -1.2927078253e-01
  6         4.2207496146e-01
  7         0.0000000000e+00
  8         0.0000000000e+00
  9         3.8064772288e-01
 10         1.2875287085e+00
 11         0.0000000000e+00
 12         0.0000000000e+00
 13         1.0999817654e+00
 14        -9.5192845252e-02
 15        -1.3636001658e+00
 16        -9.5192845252e-02
 17        -1.3636001658e+00
 Sym= B2
 Ene=         4.9317593618e-01
 Spin= Alpha
 Occup=         0.0000000000e+00
  1         0.0000000000e+00
  2         0.0000000000e+00
  3         0.0000000000e+00
  4         2.7086746853e-01
  5         0.0000000000e+00
  6         0.0000000000e+00
  7         0.0000000000e+00
  8        -1.1190373820e+00
  9         0.0000000000e+00
 10         0.0000000000e+00
 11         0.0000000000e+00
 12         1.3327043585e+00
 13         0.0000000000e+00
 14         1.5956116383e-01
 15         2.7740933539e-02
 16        -1.5956116383e-01
 17        -2.7740933539e-02
 Sym= A1
 Ene=         5.0128239115e-01
 Spin= Alpha
 Occup=         0.0000000000e+00
  1         4.2285945148e-02
  2        -2.8340535873e-03
  3         0.0000000000e+00
  4         0.0000000000e+00
  5        -1.7855620625e-01
  6         1.2014155279e+00
  7         0.0000000000e+00
  8         0.0000000000e+00
  9         7.7990934637e-01
 10        -2.4758121034e+00
 11         0.0000000000e+00
 12         0.0000000000e+00
 13        -1.7487500202e+00
 14         1.9712473209e-01
 15         9.1167413064e-01
 16         1.9712473209e-01
 17         9.1167413064e-01
 Sym= A1
 Ene=         5.2717273842e-01
 Spin= Alpha
 Occup=         0.0000000000e+00
  1         5.4212587187e-02
  2        -6.3089643318e-02
  3         0.0000000000e+00
  4         0.0000000000e+00
  5         2.0605036621e-01
  6         1.3266362740e+00
  7         0.0000000000e+00
  8         0.0000000000e+00
  9        -8.1634403178e-01
 10        -2.0590971643e+00
 11         0.0000000000e+00
 12         0.0000000000e+00
 13         3.5561156962e-01
 14         1.7415187553e-02
 15         5.6309711036e-01
 16         1.7415187553e-02
 17         5.6309711036e-01
 Sym= B1
 Ene=         5.3105226691e-01
 Spin= Alpha
 Occup=         0.0000000000e+00
  1         0.0000000000e+00
  2         0.0000000000e+00
  3         2.9168820434e-01
  4         0.0000000000e+00
  5         0.0000000000e+00
  6         0.0000000000e+00
  7        -1.1884535287e+00
  8         0.0000000000e+00
  9         0.0000000000e+00
 10         0.0000000000e+00
 11         1.2369706974e+00
 12         0.0000000000e+00
 13         0.0000000000e+00
 14         0.0000000000e+00
 15         0.0000000000e+00
 16         0.0000000000e+00
 17         0.0000000000e+00
 Sym= A1
 Ene=         1.0601241222e+00
 Spin= Alpha
 Occup=         0.0000000000e+00
  1         2.7330323598e-02
  2        -6.6865818826e-02
  3         0.0000000000e+00
  4         0.0000000000e+00
  5        -1.3468949071e-01
  6         5.4259992889e-01
  7         0.0000000000e+00
  8         0.0000000000e+00
  9         4.7152058918e-01
 10        -1.6832489768e+00
 11         0.0000000000e+00
 12         0.0000000000e+00
 13        -9.1338544650e-01
 14        -9.3699521542e-01
 15         1.4745280537e+00
 16        -9.3699521542e-01
 17         1.4745280537e+00
 Sym= B2
 Ene=         1.0792240529e+00
 Spin= Alpha
 Occup=         0.0000000000e+00
  1         0.0000000000e+00
  2         0.0000000000e+00
  3         0.0000000000e+00
  4         1.5463438666e-01
  5         0.0000000000e+00
  6         0.0000000000e+00
  7         0.0000000000e+00
  8        -5.4337443743e-01
  9         0.0000000000e+00
 10         0.0000000000e+00
 11         0.0000000000e+00
 12         9.6892552468e-01
 13         0.0000000000e+00
 14        -9.4556314700e-01
 15         1.4028186810e+00
 16         9.4556314700e-01
 17        -1.4028186810e+00
