[Molden Format]
[Atoms] (AU)
S    1   16           0.0000000000         0.0000000000        -0.1012122809
H    2    1           0.0000000000        -1.8974706977         1.6054206553
H    3    1           0.0000000000         1.8974706977         1.6054206553
[GTO]
  1 0
 s    5  1.00
    35710.0000000000         0.0025650000
     5397.0000000000         0.0194050000
     1250.0000000000         0.0955950000
      359.9000000000         0.3457930000
      119.2000000000         0.6357940000
 s    3  1.00
      119.2000000000         0.1300960000
       43.9800000000         0.6513010000
       17.6300000000         0.2719550000
 s    1  1.00
        5.4200000000         1.0000000000
 s    1  1.00
        2.0740000000         1.0000000000
 s    1  1.00
        0.4246000000         1.0000000000
 s    1  1.00
        0.1519000000         1.0000000000
 p    4  1.00
      212.9000000000         0.0140910000
       49.6000000000         0.0966850000
       15.5200000000         0.3238740000
        5.4760000000         0.6917560000
 p    2  1.00
        5.4760000000        -0.6267370000
        2.0440000000         1.3770510000
 p    1  1.00
        0.5218000000         1.0000000000
 p    1  1.00
        0.1506000000         1.0000000000

  2 0
 s    3  1.00
       19.2406000000         0.0328280000
        2.8992000000         0.2312080000
        0.6534000000         0.8172380000
 s    1  1.00
        0.1776000000         1.0000000000

  3 0
 s    3  1.00
       19.2406000000         0.0328280000
        2.8992000000         0.2312080000
        0.6534000000         0.8172380000
 s    1  1.00
        0.1776000000         1.0000000000

[MO]
 Sym= A1
 Ene=        -9.1973894367e+01
 Spin= Alpha
 Occup=         2.0000000000e+00
  1         3.9606847736e-01
  2         6.7167829615e-01
  3         1.0034769716e-02
  4        -9.2641289566e-04
  5         3.0364445191e-04
  6        -2.0401270059e-04
  7         0.0000000000e+00
  8         0.0000000000e+00
  9         1.1877674120e-04
 10         0.0000000000e+00
 11         0.0000000000e+00
 12        -4.4286586320e-05
 13         0.0000000000e+00
 14         0.0000000000e+00
 15         2.8287712335e-05
 16         0.0000000000e+00
 17         0.0000000000e+00
 18        -4.6448877630e-05
 19        -1.5751448136e-05
 20         5.0734328163e-05
 21        -1.5751448136e-05
 22         5.0734328163e-05
 Sym= A1
 Ene=        -8.9796708138e+00
 Spin= Alpha
 Occup=         2.0000000000e+00
  1         1.1465778208e-01
  2         3.2855979126e-01
  3        -5.5695748884e-01
  4        -5.6420695557e-01
  5        -3.3779438324e-02
  6         1.0168953735e-02
  7         0.0000000000e+00
  8         0.0000000000e+00
  9        -1.2680887478e-02
 10         0.0000000000e+00
 11         0.0000000000e+00
 12        -4.6677459912e-03
 13         0.0000000000e+00
 14         0.0000000000e+00
 15        -9.9453816042e-04
 16         0.0000000000e+00
 17         0.0000000000e+00
 18         1.7865936285e-03
 19         3.2532771748e-04
 20        -2.1900505281e-03
 21         3.2532771748e-04
 22        -2.1900505281e-03
 Sym= B2
 Ene=        -6.6596932094e+00
 Spin= Alpha
 Occup=         2.0000000000e+00
  1         0.0000000000e+00
  2         0.0000000000e+00
  3         0.0000000000e+00
  4         0.0000000000e+00
  5         0.0000000000e+00
  6         0.0000000000e+00
  7         0.0000000000e+00
  8         9.0623947617e-01
  9         0.0000000000e+00
 10         0.0000000000e+00
 11         2.2576228147e-01
 12         0.0000000000e+00
 13         0.0000000000e+00
 14         2.4785526243e-02
 15         0.0000000000e+00
 16         0.0000000000e+00
 17        -4.3736007863e-03
 18         0.0000000000e+00
 19         2.8467718836e-04
 20        -1.3619459243e-03
 21        -2.8467718836e-04
 22         1.3619459243e-03
 Sym= A1
 Ene=        -6.6577436503e+00
 Spin= Alpha
 Occup=         2.0000000000e+00
  1         1.8550918843e-03
  2         5.4210478280e-03
  3        -1.0822165459e-02
  4        -7.3408301816e-03
  5         2.2685321431e-03
  6        -2.4546441429e-03
  7         0.0000000000e+00
  8         0.0000000000e+00
  9         9.0657864106e-01
 10         0.0000000000e+00
 11         0.0000000000e+00
 12         2.2510690751e-01
 13         0.0000000000e+00
 14         0.0000000000e+00
 15         2.4414286566e-02
 16         0.0000000000e+00
 17         0.0000000000e+00
 18        -4.2960910883e-03
 19        -2.3913717075e-04
 20         1.4161269494e-03
 21        -2.3913717075e-04
 22         1.4161269494e-03
 Sym= B1
 Ene=        -6.6549962288e+00
 Spin= Alpha
 Occup=         2.0000000000e+00
  1         0.0000000000e+00
  2         0.0000000000e+00
  3         0.0000000000e+00
  4         0.0000000000e+00
  5         0.0000000000e+00
  6         0.0000000000e+00
  7         9.0758006017e-01
  8         0.0000000000e+00
  9         0.0000000000e+00
 10         2.2403668167e-01
 11         0.0000000000e+00
 12         0.0000000000e+00
 13         2.3284764598e-02
 14         0.0000000000e+00
 15         0.0000000000e+00
 16        -3.0885884170e-03
 17         0.0000000000e+00
 18         0.0000000000e+00
 19         0.0000000000e+00
 20         0.0000000000e+00
 21         0.0000000000e+00
 22         0.0000000000e+00
 Sym= A1
 Ene=        -9.9639345087e-01
 Spin= Alpha
 Occup=         2.0000000000e+00
  1         2.9226551428e-02
  2         8.8973448888e-02
  3        -1.9470078131e-01
  4        -3.3454401254e-01
  5         5.7952389371e-01
  6         4.1576215457e-01
  7         0.0000000000e+00
  8         0.0000000000e+00
  9        -4.7629656858e-02
 10         0.0000000000e+00
 11         0.0000000000e+00
 12        -1.0890032186e-02
 13         0.0000000000e+00
 14         0.0000000000e+00
 15         1.0871306778e-01
 16         0.0000000000e+00
 17         0.0000000000e+00
 18         4.8853813072e-02
 19         1.4318453776e-01
 20         5.0249236062e-02
 21         1.4318453776e-01
 22         5.0249236062e-02
 Sym= B2
 Ene=        -5.9286625110e-01
 Spin= Alpha
 Occup=         2.0000000000e+00
  1         0.0000000000e+00
  2         0.0000000000e+00
  3         0.0000000000e+00
  4         0.0000000000e+00
  5         0.0000000000e+00
  6         0.0000000000e+00
  7         0.0000000000e+00
  8         1.7680911369e-01
  9         0.0000000000e+00
 10         0.0000000000e+00
 11         2.6460727634e-02
 12         0.0000000000e+00
 13         0.0000000000e+00
 14        -3.9675816596e-01
 15         0.0000000000e+00
 16         0.0000000000e+00
 17        -2.1797142976e-01
 18         0.0000000000e+00
 19         2.4680914510e-01
 20         2.4788515482e-01
 21        -2.4680914510e-01
 22        -2.4788515482e-01
 Sym= A1
 Ene=        -4.8398234073e-01
 Spin= Alpha
 Occup=         2.0000000000e+00
  1         1.3181112049e-02
  2         4.0728708799e-02
  3        -9.4924395545e-02
  4        -1.4433441910e-01
  5         2.5525274059e-01
  6         3.7883807890e-01
  7         0.0000000000e+00
  8         0.0000000000e+00
  9         1.9044787192e-01
 10         0.0000000000e+00
 11         0.0000000000e+00
 12         2.2343044024e-02
 13         0.0000000000e+00
 14         0.0000000000e+00
 15        -4.1628152351e-01
 16         0.0000000000e+00
 17         0.0000000000e+00
 18        -3.7576007962e-01
 19        -1.5649020190e-01
 20        -1.6956510152e-01
 21        -1.5649020190e-01
 22        -1.6956510152e-01
 Sym= B1
 Ene=        -3.8917683023e-01
 Spin= Alpha
 Occup=         2.0000000000e+00
  1         0.0000000000e+00
  2         0.0000000000e+00
  3         0.0000000000e+00
  4         0.0000000000e+00
  5         0.0000000000e+00
  6         0.0000000000e+00
  7         2.3060615485e-01
  8         0.0000000000e+00
  9         0.0000000000e+00
 10         2.1846790514e-02
 11         0.0000000000e+00
 12         0.0000000000e+00
 13        -5.0773813898e-01
 14         0.0000000000e+00
 15         0.0000000000e+00
 16        -6.0917694293e-01
 17         0.0000000000e+00
 18         0.0000000000e+00
 19         0.0000000000e+00
 20         0.0000000000e+00
 21         0.0000000000e+00
 22         0.0000000000e+00
 Sym= B2
 Ene=         1.8590013501e-01
 Spin= Alpha
 Occup=         0.0000000000e+00
  1         0.0000000000e+00
  2         0.0000000000e+00
  3         0.0000000000e+00
  4         0.0000000000e+00
  5         0.0000000000e+00
  6         0.0000000000e+00
  7         0.0000000000e+00
  8         1.4336403220e-01
  9         0.0000000000e+00
 10         0.0000000000e+00
 11         7.9002001091e-03
 12         0.0000000000e+00
 13         0.0000000000e+00
 14        -2.8422232890e-01
 15         0.0000000000e+00
 16         0.0000000000e+00
 17        -1.1771878658e+00
 18         0.0000000000e+00
 19        -1.4248424094e-01
 20        -1.0258941496e+00
 21         1.4248424094e-01
 22         1.0258941496e+00
 Sym= A1
 Ene=         1.9491488694e-01
 Spin= Alpha
 Occup=         0.0000000000e+00
  1         1.3553147602e-02
  2         4.1707823571e-02
  3        -9.5599399105e-02
  4        -1.6180215910e-01
  5         2.2676764080e-01
  6         1.2642677969e+00
  7         0.0000000000e+00
  8         0.0000000000e+00
  9        -1.1835946817e-01
 10         0.0000000000e+00
 11         0.0000000000e+00
 12        -8.5281238523e-03
 13         0.0000000000e+00
 14         0.0000000000e+00
 15         2.5357526404e-01
 16         0.0000000000e+00
 17         0.0000000000e+00
 18         1.0597107062e+00
 19        -9.1062755885e-02
 20        -1.2087960956e+00
 21        -9.1062755885e-02
 22        -1.2087960956e+00
 Sym= B2
 Ene=         7.0085559969e-01
 Spin= Alpha
 Occup=         0.0000000000e+00
  1         0.0000000000e+00
  2         0.0000000000e+00
  3         0.0000000000e+00
  4         0.0000000000e+00
  5         0.0000000000e+00
  6         0.0000000000e+00
  7         0.0000000000e+00
  8         2.4131454826e-01
  9         0.0000000000e+00
 10         0.0000000000e+00
 11         9.1759807024e-02
 12         0.0000000000e+00
 13         0.0000000000e+00
 14        -1.1763583078e+00
 15         0.0000000000e+00
 16         0.0000000000e+00
 17         1.2701593378e+00
 18         0.0000000000e+00
 19         3.0866717308e-01
 20        -7.0813750692e-02
 21        -3.0866717308e-01
 22         7.0813750692e-02
 Sym= A1
 Ene=         7.2132497654e-01
 Spin= Alpha
 Occup=         0.0000000000e+00
  1         2.3019163146e-02
  2         6.6787535287e-02
  3        -1.1637291371e-01
  4        -4.5759174895e-01
  5         1.8687266397e+00
  6        -2.0441947639e+00
  7         0.0000000000e+00
  8         0.0000000000e+00
  9         1.8051376972e-01
 10         0.0000000000e+00
 11         0.0000000000e+00
 12         5.7405749828e-02
 13         0.0000000000e+00
 14         0.0000000000e+00
 15        -7.8711968280e-01
 16         0.0000000000e+00
 17         0.0000000000e+00
 18         3.8120020138e-01
 19         1.8700478126e-03
 20         4.2332292368e-01
 21         1.8700478126e-03
 22         4.2332292368e-01
 Sym= B1
 Ene=         7.4619701219e-01
 Spin= Alpha
 Occup=         0.0000000000e+00
  1         0.0000000000e+00
  2         0.0000000000e+00
  3         0.0000000000e+00
  4         0.0000000000e+00
  5         0.0000000000e+00
  6         0.0000000000e+00
  7         2.8269053831e-01
  8         0.0000000000e+00
  9         0.0000000000e+00
 10         8.8310887470e-02
 11         0.0000000000e+00
 12         0.0000000000e+00
 13        -1.2838932182e+00
 14         0.0000000000e+00
 15         0.0000000000e+00
 16         1.1699824436e+00
 17         0.0000000000e+00
 18         0.0000000000e+00
 19         0.0000000000e+00
 20         0.0000000000e+00
 21         0.0000000000e+00
 22         0.0000000000e+00
 Sym= A1
 Ene=         7.5013188042e-01
 Spin= Alpha
 Occup=         0.0000000000e+00
  1         1.4335756568e-02
  2         4.0006521113e-02
  3        -5.3745798079e-02
  4        -3.4739839586e-01
  5         1.5876679449e+00
  6        -2.1891897389e+00
  7         0.0000000000e+00
  8         0.0000000000e+00
  9        -1.7436327547e-01
 10         0.0000000000e+00
 11         0.0000000000e+00
 12        -7.1513169470e-02
 13         0.0000000000e+00
 14         0.0000000000e+00
 15         9.2801332095e-01
 16         0.0000000000e+00
 17         0.0000000000e+00
 18        -1.5547414175e+00
 19         3.5176100107e-01
 20         5.6086341109e-01
 21         3.5176100107e-01
 22         5.6086341109e-01
 Sym= A1
 Ene=         1.0765940382e+00
 Spin= Alpha
 Occup=         0.0000000000e+00
  1         1.2030885118e-02
  2         3.6942433993e-02
  3        -8.3558687126e-02
  4        -1.7906392097e-01
  5         7.8268809231e-01
  6        -1.5098242559e+00
  7         0.0000000000e+00
  8         0.0000000000e+00
  9        -1.4762583403e-01
 10         0.0000000000e+00
 11         0.0000000000e+00
 12        -1.5306023268e-02
 13         0.0000000000e+00
 14         0.0000000000e+00
 15         5.4517684976e-01
 16         0.0000000000e+00
 17         0.0000000000e+00
 18        -8.0201734567e-01
 19        -8.9033217778e-01
 20         1.2727438126e+00
 21        -8.9033217778e-01
 22         1.2727438126e+00
 Sym= B2
 Ene=         1.1380290800e+00
 Spin= Alpha
 Occup=         0.0000000000e+00
  1         0.0000000000e+00
  2         0.0000000000e+00
  3         0.0000000000e+00
  4         0.0000000000e+00
  5         0.0000000000e+00
  6         0.0000000000e+00
  7         0.0000000000e+00
  8         1.6842735114e-01
  9         0.0000000000e+00
 10         0.0000000000e+00
 11         1.7335070836e-02
 12         0.0000000000e+00
 13         0.0000000000e+00
 14        -6.2907712891e-01
 15         0.0000000000e+00
 16         0.0000000000e+00
 17         9.3904589544e-01
 18         0.0000000000e+00
 19        -9.2052411002e-01
 20         1.3110992711e+00
 21         9.2052411002e-01
 22        -1.3110992711e+00
 Sym= B1
 Ene=         5.6648253769e+00
 Spin= Alpha
 Occup=         0.0000000000e+00
  1         0.0000000000e+00
  2         0.0000000000e+00
  3         0.0000000000e+00
  4         0.0000000000e+00
  5         0.0000000000e+00
  6         0.0000000000e+00
  7         3.5454436503e-01
  8         0.0000000000e+00
  9         0.0000000000e+00
 10        -1.4040095180e+00
 11         0.0000000000e+00
 12         0.0000000000e+00
 13         1.1131957019e+00
 14         0.0000000000e+00
 15         0.0000000000e+00
 16        -3.9756685050e-01
 17         0.0000000000e+00
 18         0.0000000000e+00
 19         0.0000000000e+00
 20         0.0000000000e+00
 21         0.0000000000e+00
 22         0.0000000000e+00
 Sym= A1
 Ene=         5.7148207751e+00
 Spin= Alpha
 Occup=         0.0000000000e+00
  1         2.1858819570e-03
  2         8.2916819427e-03
  3        -3.6654191162e-02
  4         1.5721687681e-02
  5         9.4938804406e-02
  6        -2.6109098968e-01
  7         0.0000000000e+00
  8         0.0000000000e+00
  9         3.5115483424e-01
 10         0.0000000000e+00
 11         0.0000000000e+00
 12        -1.4147744398e+00
 13         0.0000000000e+00
 14         0.0000000000e+00
 15         1.1550814916e+00
 16         0.0000000000e+00
 17         0.0000000000e+00
 18        -5.3122035825e-01
 19        -1.0311787990e-01
 20         2.0463407156e-01
 21        -1.0311787990e-01
 22         2.0463407156e-01
 Sym= B2
 Ene=         5.7238475000e+00
 Spin= Alpha
 Occup=         0.0000000000e+00
  1         0.0000000000e+00
  2         0.0000000000e+00
  3         0.0000000000e+00
  4         0.0000000000e+00
  5         0.0000000000e+00
  6         0.0000000000e+00
  7         0.0000000000e+00
  8         3.5074114462e-01
  9         0.0000000000e+00
 10         0.0000000000e+00
 11        -1.4173018366e+00
 12         0.0000000000e+00
 13         0.0000000000e+00
 14         1.1612211144e+00
 15         0.0000000000e+00
 16         0.0000000000e+00
 17        -5.3555279896e-01
 18         0.0000000000e+00
 19         1.3263771109e-01
 20        -2.1391932281e-01
 21        -1.3263771109e-01
 22         2.1391932281e-01
 Sym= A1
 Ene=         7.9469549818e+00
 Spin= Alpha
 Occup=         0.0000000000e+00
  1         1.0559599518e-01
  2         4.4462585980e-01
  3        -2.5094193445e+00
  4         2.9379240113e+00
  5        -1.6680894561e+00
  6         1.0411970699e+00
  7         0.0000000000e+00
  8         0.0000000000e+00
  9        -3.2272417178e-03
 10         0.0000000000e+00
 11         0.0000000000e+00
 12         4.1572895649e-02
 13         0.0000000000e+00
 14         0.0000000000e+00
 15        -7.8729574326e-02
 16         0.0000000000e+00
 17         0.0000000000e+00
 18         2.1827692425e-01
 19         7.5993647745e-02
 20        -2.6585042788e-01
 21         7.5993647745e-02
 22        -2.6585042788e-01
 Sym= A1
 Ene=         1.9557866859e+02
 Spin= Alpha
 Occup=         0.0000000000e+00
  1         1.5203140050e+00
  2        -1.8215779474e+00
  3         1.2992629097e+00
  4        -8.5687409140e-01
  5         3.5177573486e-01
  6        -2.1498072592e-01
  7         0.0000000000e+00
  8         0.0000000000e+00
  9        -3.9409568957e-04
 10         0.0000000000e+00
 11         0.0000000000e+00
 12        -4.8459407406e-03
 13         0.0000000000e+00
 14         0.0000000000e+00
 15         1.3124931612e-02
 16         0.0000000000e+00
 17         0.0000000000e+00
 18        -4.4171175871e-02
 19        -1.2983328227e-02
 20         5.3475948066e-02
 21        -1.2983328227e-02
 22         5.3475948066e-02
