[Molden Format]
[Atoms] (AU)
S    1   16           0.0000000000         0.0000000000        -0.1012122809
H    2    1           0.0000000000        -1.8974706977         1.6054206553
H    3    1           0.0000000000         1.8974706977         1.6054206553
[GTO]
  1 0
 s    5  1.00
    35710.0000000000         0.0025650000
     5397.0000000000         0.0194050000
     1250.0000000000         0.0955950000
      359.9000000000         0.3457930000
      119.2000000000         0.6357940000
 s    3  1.00
      119.2000000000         0.1300960000
       43.9800000000         0.6513010000
       17.6300000000         0.2719550000
 s    1  1.00
        5.4200000000         1.0000000000
 s    1  1.00
        2.0740000000         1.0000000000
 s    1  1.00
        0.4246000000         1.0000000000
 s    1  1.00
        0.1519000000         1.0000000000
 p    4  1.00
      212.9000000000         0.0140910000
       49.6000000000         0.0966850000
       15.5200000000         0.3238740000
        5.4760000000         0.6917560000
 p    2  1.00
        5.4760000000        -0.6267370000
        2.0440000000         1.3770510000
 p    1  1.00
        0.5218000000         1.0000000000
 p    1  1.00
        0.1506000000         1.0000000000

  2 0
 s    3  1.00
       19.2406000000         0.0328280000
        2.8992000000         0.2312080000
        0.6534000000         0.8172380000
 s    1  1.00
        0.1776000000         1.0000000000

  3 0
 s    3  1.00
       19.2406000000         0.0328280000
        2.8992000000         0.2312080000
        0.6534000000         0.8172380000
 s    1  1.00
        0.1776000000         1.0000000000

[MO]
 Sym= A1
 Ene=        -9.1973894245e+01
 Spin= Alpha
 Occup=         2.0000000000e+00
  1         3.9606847730e-01
  2         6.7167829609e-01
  3         1.0034770081e-02
  4        -9.2641311499e-04
  5         3.0364451230e-04
  6        -2.0401274081e-04
  7         0.0000000000e+00
  8         0.0000000000e+00
  9         1.1877655857e-04
 10         0.0000000000e+00
 11         0.0000000000e+00
 12        -4.4286520575e-05
 13         0.0000000000e+00
 14         0.0000000000e+00
 15         2.8287692274e-05
 16         0.0000000000e+00
 17         0.0000000000e+00
 18        -4.6448879292e-05
 19        -1.5751448517e-05
 20         5.0734336759e-05
 21        -1.5751448517e-05
 22         5.0734336759e-05
 Sym= A1
 Ene=        -8.9796707314e+00
 Spin= Alpha
 Occup=         2.0000000000e+00
  1         1.1465778185e-01
  2         3.2855979070e-01
  3        -5.5695748550e-01
  4        -5.6420695801e-01
  5        -3.3779438649e-02
  6         1.0168952524e-02
  7         0.0000000000e+00
  8         0.0000000000e+00
  9        -1.2680888622e-02
 10         0.0000000000e+00
 11         0.0000000000e+00
 12        -4.6677442980e-03
 13         0.0000000000e+00
 14         0.0000000000e+00
 15        -9.9453862045e-04
 16         0.0000000000e+00
 17         0.0000000000e+00
 18         1.7865932416e-03
 19         3.2532792926e-04
 20        -2.1900502287e-03
 21         3.2532792926e-04
 22        -2.1900502287e-03
 Sym= B2
 Ene=        -6.6596931311e+00
 Spin= Alpha
 Occup=         2.0000000000e+00
  1         0.0000000000e+00
  2         0.0000000000e+00
  3         0.0000000000e+00
  4         0.0000000000e+00
  5         0.0000000000e+00
  6         0.0000000000e+00
  7         0.0000000000e+00
  8         9.0623947550e-01
  9         0.0000000000e+00
 10         0.0000000000e+00
 11         2.2576228322e-01
 12         0.0000000000e+00
 13         0.0000000000e+00
 14         2.4785525716e-02
 15         0.0000000000e+00
 16         0.0000000000e+00
 17        -4.3736012267e-03
 18         0.0000000000e+00
 19         2.8467690701e-04
 20        -1.3619460677e-03
 21        -2.8467690701e-04
 22         1.3619460677e-03
 Sym= A1
 Ene=        -6.6577435678e+00
 Spin= Alpha
 Occup=         2.0000000000e+00
  1         1.8550915633e-03
  2         5.4210467231e-03
  3        -1.0822158489e-02
  4        -7.3408370783e-03
  5         2.2685320332e-03
  6        -2.4546431769e-03
  7         0.0000000000e+00
  8         0.0000000000e+00
  9         9.0657863829e-01
 10         0.0000000000e+00
 11         0.0000000000e+00
 12         2.2510691328e-01
 13         0.0000000000e+00
 14         0.0000000000e+00
 15         2.4414286152e-02
 16         0.0000000000e+00
 17         0.0000000000e+00
 18        -4.2960910101e-03
 19        -2.3913674463e-04
 20         1.4161267828e-03
 21        -2.3913674463e-04
 22         1.4161267828e-03
 Sym= B1
 Ene=        -6.6549961753e+00
 Spin= Alpha
 Occup=         2.0000000000e+00
  1         0.0000000000e+00
  2         0.0000000000e+00
  3         0.0000000000e+00
  4         0.0000000000e+00
  5         0.0000000000e+00
  6         0.0000000000e+00
  7         9.0758006426e-01
  8         0.0000000000e+00
  9         0.0000000000e+00
 10         2.2403667503e-01
 11         0.0000000000e+00
 12         0.0000000000e+00
 13         2.3284761907e-02
 14         0.0000000000e+00
 15         0.0000000000e+00
 16        -3.0885867406e-03
 17         0.0000000000e+00
 18         0.0000000000e+00
 19         0.0000000000e+00
 20         0.0000000000e+00
 21         0.0000000000e+00
 22         0.0000000000e+00
 Sym= A1
 Ene=        -9.9639345486e-01
 Spin= Alpha
 Occup=         2.0000000000e+00
  1         2.9226547984e-02
  2         8.8973438040e-02
  3        -1.9470075251e-01
  4        -3.3454397713e-01
  5         5.7952376422e-01
  6         4.1576218894e-01
  7         0.0000000000e+00
  8         0.0000000000e+00
  9        -4.7629660885e-02
 10         0.0000000000e+00
 11         0.0000000000e+00
 12        -1.0890035664e-02
 13         0.0000000000e+00
 14         0.0000000000e+00
 15         1.0871306707e-01
 16         0.0000000000e+00
 17         0.0000000000e+00
 18         4.8853847698e-02
 19         1.4318459427e-01
 20         5.0249243395e-02
 21         1.4318459427e-01
 22         5.0249243395e-02
 Sym= B2
 Ene=        -5.9286638886e-01
 Spin= Alpha
 Occup=         2.0000000000e+00
  1         0.0000000000e+00
  2         0.0000000000e+00
  3         0.0000000000e+00
  4         0.0000000000e+00
  5         0.0000000000e+00
  6         0.0000000000e+00
  7         0.0000000000e+00
  8         1.7680911074e-01
  9         0.0000000000e+00
 10         0.0000000000e+00
 11         2.6460726995e-02
 12         0.0000000000e+00
 13         0.0000000000e+00
 14        -3.9675815615e-01
 15         0.0000000000e+00
 16         0.0000000000e+00
 17        -2.1797142469e-01
 18         0.0000000000e+00
 19         2.4680915447e-01
 20         2.4788515586e-01
 21        -2.4680915447e-01
 22        -2.4788515586e-01
 Sym= A1
 Ene=        -4.8398230099e-01
 Spin= Alpha
 Occup=         2.0000000000e+00
  1         1.3181111997e-02
  2         4.0728708518e-02
  3        -9.4924392556e-02
  4        -1.4433441436e-01
  5         2.5525266185e-01
  6         3.7883811828e-01
  7         0.0000000000e+00
  8         0.0000000000e+00
  9         1.9044782905e-01
 10         0.0000000000e+00
 11         0.0000000000e+00
 12         2.2343039094e-02
 13         0.0000000000e+00
 14         0.0000000000e+00
 15        -4.1628132755e-01
 16         0.0000000000e+00
 17         0.0000000000e+00
 18        -3.7576034733e-01
 19        -1.5649017648e-01
 20        -1.6956500253e-01
 21        -1.5649017648e-01
 22        -1.6956500253e-01
 Sym= B1
 Ene=        -3.8917687511e-01
 Spin= Alpha
 Occup=         2.0000000000e+00
  1         0.0000000000e+00
  2         0.0000000000e+00
  3         0.0000000000e+00
  4         0.0000000000e+00
  5         0.0000000000e+00
  6         0.0000000000e+00
  7         2.3060619888e-01
  8         0.0000000000e+00
  9         0.0000000000e+00
 10         2.1846789964e-02
 11         0.0000000000e+00
 12         0.0000000000e+00
 13        -5.0773832802e-01
 14         0.0000000000e+00
 15         0.0000000000e+00
 16        -6.0917676482e-01
 17         0.0000000000e+00
 18         0.0000000000e+00
 19         0.0000000000e+00
 20         0.0000000000e+00
 21         0.0000000000e+00
 22         0.0000000000e+00
 Sym= B2
 Ene=         1.8590022922e-01
 Spin= Alpha
 Occup=         0.0000000000e+00
  1         0.0000000000e+00
  2         0.0000000000e+00
  3         0.0000000000e+00
  4         0.0000000000e+00
  5         0.0000000000e+00
  6         0.0000000000e+00
  7         0.0000000000e+00
  8         1.4336402949e-01
  9         0.0000000000e+00
 10         0.0000000000e+00
 11         7.9002024471e-03
 12         0.0000000000e+00
 13         0.0000000000e+00
 14        -2.8422232410e-01
 15         0.0000000000e+00
 16         0.0000000000e+00
 17        -1.1771878945e+00
 18         0.0000000000e+00
 19        -1.4248417675e-01
 20        -1.0258942255e+00
 21         1.4248417675e-01
 22         1.0258942255e+00
 Sym= A1
 Ene=         1.9491492770e-01
 Spin= Alpha
 Occup=         0.0000000000e+00
  1         1.3553149109e-02
  2         4.1707828190e-02
  3        -9.5599408929e-02
  4        -1.6180217281e-01
  5         2.2676761628e-01
  6         1.2642679682e+00
  7         0.0000000000e+00
  8         0.0000000000e+00
  9        -1.1835944636e-01
 10         0.0000000000e+00
 11         0.0000000000e+00
 12        -8.5281254343e-03
 13         0.0000000000e+00
 14         0.0000000000e+00
 15         2.5357519875e-01
 16         0.0000000000e+00
 17         0.0000000000e+00
 18         1.0597107592e+00
 19        -9.1062720461e-02
 20        -1.2087961802e+00
 21        -9.1062720461e-02
 22        -1.2087961802e+00
 Sym= B2
 Ene=         7.0085564290e-01
 Spin= Alpha
 Occup=         0.0000000000e+00
  1         0.0000000000e+00
  2         0.0000000000e+00
  3         0.0000000000e+00
  4         0.0000000000e+00
  5         0.0000000000e+00
  6         0.0000000000e+00
  7         0.0000000000e+00
  8         2.4131453564e-01
  9         0.0000000000e+00
 10         0.0000000000e+00
 11         9.1759807129e-02
 12         0.0000000000e+00
 13         0.0000000000e+00
 14        -1.1763582659e+00
 15         0.0000000000e+00
 16         0.0000000000e+00
 17         1.2701593103e+00
 18         0.0000000000e+00
 19         3.0866722988e-01
 20        -7.0813803210e-02
 21        -3.0866722988e-01
 22         7.0813803210e-02
 Sym= A1
 Ene=         7.2132510976e-01
 Spin= Alpha
 Occup=         0.0000000000e+00
  1         2.3019179371e-02
  2         6.6787581296e-02
  3        -1.1637298160e-01
  4        -4.5759211032e-01
  5         1.8687281888e+00
  6        -2.0441967982e+00
  7         0.0000000000e+00
  8         0.0000000000e+00
  9         1.8051362982e-01
 10         0.0000000000e+00
 11         0.0000000000e+00
 12         5.7405692127e-02
 13         0.0000000000e+00
 14         0.0000000000e+00
 15        -7.8711886450e-01
 16         0.0000000000e+00
 17         0.0000000000e+00
 18         3.8119867734e-01
 19         1.8702857591e-03
 20         4.2332349780e-01
 21         1.8702857591e-03
 22         4.2332349780e-01
 Sym= B1
 Ene=         7.4619699310e-01
 Spin= Alpha
 Occup=         0.0000000000e+00
  1         0.0000000000e+00
  2         0.0000000000e+00
  3         0.0000000000e+00
  4         0.0000000000e+00
  5         0.0000000000e+00
  6         0.0000000000e+00
  7         2.8269049945e-01
  8         0.0000000000e+00
  9         0.0000000000e+00
 10         8.8310876627e-02
 11         0.0000000000e+00
 12         0.0000000000e+00
 13        -1.2838931344e+00
 14         0.0000000000e+00
 15         0.0000000000e+00
 16         1.1699825365e+00
 17         0.0000000000e+00
 18         0.0000000000e+00
 19         0.0000000000e+00
 20         0.0000000000e+00
 21         0.0000000000e+00
 22         0.0000000000e+00
 Sym= A1
 Ene=         7.5013192934e-01
 Spin= Alpha
 Occup=         0.0000000000e+00
  1         1.4335734446e-02
  2         4.0006456465e-02
  3        -5.3745680523e-02
  4        -3.4739797197e-01
  5         1.5876661980e+00
  6        -2.1891877933e+00
  7         0.0000000000e+00
  8         0.0000000000e+00
  9        -1.7436345076e-01
 10         0.0000000000e+00
 11         0.0000000000e+00
 12        -7.1513227122e-02
 13         0.0000000000e+00
 14         0.0000000000e+00
 15         9.2801405234e-01
 16         0.0000000000e+00
 17         0.0000000000e+00
 18        -1.5547416653e+00
 19         3.5176106230e-01
 20         5.6086294388e-01
 21         3.5176106230e-01
 22         5.6086294388e-01
 Sym= A1
 Ene=         1.0765940570e+00
 Spin= Alpha
 Occup=         0.0000000000e+00
  1         1.2030885906e-02
  2         3.6942436197e-02
  3        -8.3558689562e-02
  4        -1.7906393436e-01
  5         7.8268808762e-01
  6        -1.5098241649e+00
  7         0.0000000000e+00
  8         0.0000000000e+00
  9        -1.4762586939e-01
 10         0.0000000000e+00
 11         0.0000000000e+00
 12        -1.5306036272e-02
 13         0.0000000000e+00
 14         0.0000000000e+00
 15         5.4517698824e-01
 16         0.0000000000e+00
 17         0.0000000000e+00
 18        -8.0201739378e-01
 19        -8.9033215217e-01
 20         1.2727437607e+00
 21        -8.9033215217e-01
 22         1.2727437607e+00
 Sym= B2
 Ene=         1.1380291004e+00
 Spin= Alpha
 Occup=         0.0000000000e+00
  1         0.0000000000e+00
  2         0.0000000000e+00
  3         0.0000000000e+00
  4         0.0000000000e+00
  5         0.0000000000e+00
  6         0.0000000000e+00
  7         0.0000000000e+00
  8         1.6842737497e-01
  9         0.0000000000e+00
 10         0.0000000000e+00
 11         1.7335078292e-02
 12         0.0000000000e+00
 13         0.0000000000e+00
 14        -6.2907721856e-01
 15         0.0000000000e+00
 16         0.0000000000e+00
 17         9.3904589846e-01
 18         0.0000000000e+00
 19        -9.2052409852e-01
 20         1.3110992088e+00
 21         9.2052409852e-01
 22        -1.3110992088e+00
 Sym= B1
 Ene=         5.6648254227e+00
 Spin= Alpha
 Occup=         0.0000000000e+00
  1         0.0000000000e+00
  2         0.0000000000e+00
  3         0.0000000000e+00
  4         0.0000000000e+00
  5         0.0000000000e+00
  6         0.0000000000e+00
  7         3.5454435691e-01
  8         0.0000000000e+00
  9         0.0000000000e+00
 10        -1.4040095198e+00
 11         0.0000000000e+00
 12         0.0000000000e+00
 13         1.1131957124e+00
 14         0.0000000000e+00
 15         0.0000000000e+00
 16        -3.9756684990e-01
 17         0.0000000000e+00
 18         0.0000000000e+00
 19         0.0000000000e+00
 20         0.0000000000e+00
 21         0.0000000000e+00
 22         0.0000000000e+00
 Sym= A1
 Ene=         5.7148208375e+00
 Spin= Alpha
 Occup=         0.0000000000e+00
  1         2.1858815034e-03
  2         8.2916797357e-03
  3        -3.6654176528e-02
  4         1.5721668715e-02
  5         9.4938814840e-02
  6        -2.6109099589e-01
  7         0.0000000000e+00
  8         0.0000000000e+00
  9         3.5115484145e-01
 10         0.0000000000e+00
 11         0.0000000000e+00
 12        -1.4147744385e+00
 13         0.0000000000e+00
 14         0.0000000000e+00
 15         1.1550814818e+00
 16         0.0000000000e+00
 17         0.0000000000e+00
 18        -5.3122035864e-01
 19        -1.0311788031e-01
 20         2.0463407287e-01
 21        -1.0311788031e-01
 22         2.0463407287e-01
 Sym= B2
 Ene=         5.7238475597e+00
 Spin= Alpha
 Occup=         0.0000000000e+00
  1         0.0000000000e+00
  2         0.0000000000e+00
  3         0.0000000000e+00
  4         0.0000000000e+00
  5         0.0000000000e+00
  6         0.0000000000e+00
  7         0.0000000000e+00
  8         3.5074114619e-01
  9         0.0000000000e+00
 10         0.0000000000e+00
 11        -1.4173018362e+00
 12         0.0000000000e+00
 13         0.0000000000e+00
 14         1.1612211128e+00
 15         0.0000000000e+00
 16         0.0000000000e+00
 17        -5.3555279780e-01
 18         0.0000000000e+00
 19         1.3263771026e-01
 20        -2.1391932237e-01
 21        -1.3263771026e-01
 22         2.1391932237e-01
 Sym= A1
 Ene=         7.9469550639e+00
 Spin= Alpha
 Occup=         0.0000000000e+00
  1         1.0559599548e-01
  2         4.4462586113e-01
  3        -2.5094193469e+00
  4         2.9379240075e+00
  5        -1.6680894454e+00
  6         1.0411970612e+00
  7         0.0000000000e+00
  8         0.0000000000e+00
  9        -3.2272372244e-03
 10         0.0000000000e+00
 11         0.0000000000e+00
 12         4.1572887473e-02
 13         0.0000000000e+00
 14         0.0000000000e+00
 15        -7.8729566311e-02
 16         0.0000000000e+00
 17         0.0000000000e+00
 18         2.1827691766e-01
 19         7.5993646244e-02
 20        -2.6585042383e-01
 21         7.5993646244e-02
 22        -2.6585042383e-01
 Sym= A1
 Ene=         1.9557866870e+02
 Spin= Alpha
 Occup=         0.0000000000e+00
  1         1.5203140050e+00
  2        -1.8215779474e+00
  3         1.2992629095e+00
  4        -8.5687409122e-01
  5         3.5177573476e-01
  6        -2.1498072584e-01
  7         0.0000000000e+00
  8         0.0000000000e+00
  9        -3.9409564531e-04
 10         0.0000000000e+00
 11         0.0000000000e+00
 12        -4.8459407268e-03
 13         0.0000000000e+00
 14         0.0000000000e+00
 15         1.3124931591e-02
 16         0.0000000000e+00
 17         0.0000000000e+00
 18        -4.4171175836e-02
 19        -1.2983328221e-02
 20         5.3475948039e-02
 21        -1.2983328221e-02
 22         5.3475948039e-02
