[Molden Format]
[Atoms] (AU)
O    1    8           0.0000000000         0.0000000000        -0.1117712977
H    2    1           0.0000000000        -1.4948451743         0.8869458023
H    3    1           0.0000000000         1.4948451743         0.8869458023
[GTO]
  1 0
 s    6  1.00
     7816.5400000000         0.0020310000
     1175.8200000000         0.0154360000
      273.1880000000         0.0737710000
       81.1696000000         0.2476060000
       27.1836000000         0.6118320000
        3.4136000000         0.2412050000
 s    1  1.00
        9.5322000000         1.0000000000
 s    1  1.00
        0.9398000000         1.0000000000
 s    1  1.00
        0.2846000000         1.0000000000
 p    4  1.00
       35.1832000000         0.0195800000
        7.9040000000         0.1241890000
        2.3051000000         0.3947270000
        0.7171000000         0.6273750000
 p    1  1.00
        0.2137000000         1.0000000000

  2 0
 s    3  1.00
       19.2406000000         0.0328280000
        2.8992000000         0.2312080000
        0.6534000000         0.8172380000
 s    1  1.00
        0.1776000000         1.0000000000

  3 0
 s    3  1.00
       19.2406000000         0.0328280000
        2.8992000000         0.2312080000
        0.6534000000         0.8172380000
 s    1  1.00
        0.1776000000         1.0000000000

[MO]
 Sym= A1
 Ene=        -2.0552763281e+01
 Spin= Alpha
 Occup=         2.0000000000e+00
  1         5.8098228190e-01
  2         4.6122962726e-01
  3        -6.5374859365e-05
  4         1.8650055021e-03
  5         0.0000000000e+00
  6         0.0000000000e+00
  7         1.6024492538e-03
  8         0.0000000000e+00
  9         0.0000000000e+00
 10        -4.5909372056e-04
 11         4.3315289608e-05
 12        -1.8955424336e-04
 13         4.3315289608e-05
 14        -1.8955424336e-04
 Sym= A1
 Ene=        -1.3565861420e+00
 Spin= Alpha
 Occup=         2.0000000000e+00
  1         1.3072523168e-01
  2         1.8132496434e-01
  3        -5.1056507507e-01
  4        -4.5247132980e-01
  5         0.0000000000e+00
  6         0.0000000000e+00
  7        -1.2042986719e-01
  8         0.0000000000e+00
  9         0.0000000000e+00
 10        -3.0598425685e-02
 11        -1.3777944642e-01
 12        -6.4666751363e-03
 13        -1.3777944642e-01
 14        -6.4666751363e-03
 Sym= B2
 Ene=        -7.3455963343e-01
 Spin= Alpha
 Occup=         2.0000000000e+00
  1         0.0000000000e+00
  2         0.0000000000e+00
  3         0.0000000000e+00
  4         0.0000000000e+00
  5         0.0000000000e+00
  6         5.7207499461e-01
  7         0.0000000000e+00
  8         0.0000000000e+00
  9         1.6946336441e-01
 10         0.0000000000e+00
 11        -2.5727523017e-01
 12        -1.2307510687e-01
 13         2.5727523017e-01
 14         1.2307510687e-01
 Sym= A1
 Ene=        -5.5306205312e-01
 Spin= Alpha
 Occup=         2.0000000000e+00
  1         4.4043460407e-02
  2         6.1463000947e-02
  3        -1.8643657533e-01
  4        -2.4869889477e-01
  5         0.0000000000e+00
  6         0.0000000000e+00
  7         6.3900667273e-01
  8         0.0000000000e+00
  9         0.0000000000e+00
 10         3.4214126929e-01
 11         1.3000815169e-01
 12         5.3755929218e-02
 13         1.3000815169e-01
 14         5.3755929218e-02
 Sym= B1
 Ene=        -5.0332519016e-01
 Spin= Alpha
 Occup=         2.0000000000e+00
  1         0.0000000000e+00
  2         0.0000000000e+00
  3         0.0000000000e+00
  4         0.0000000000e+00
  5         7.2709036453e-01
  6         0.0000000000e+00
  7         0.0000000000e+00
  8         4.1099958975e-01
  9         0.0000000000e+00
 10         0.0000000000e+00
 11         0.0000000000e+00
 12         0.0000000000e+00
 13         0.0000000000e+00
 14         0.0000000000e+00
