[Molden Format]
[Atoms] (AU)
O    1    8           0.0000000000         0.0000000000        -0.1117712977
H    2    1           0.0000000000        -1.4948451743         0.8869458023
H    3    1           0.0000000000         1.4948451743         0.8869458023
[GTO]
  1 0
 s    6  1.00
     7816.5400000000         0.0020310000
     1175.8200000000         0.0154360000
      273.1880000000         0.0737710000
       81.1696000000         0.2476060000
       27.1836000000         0.6118320000
        3.4136000000         0.2412050000
 s    1  1.00
        9.5322000000         1.0000000000
 s    1  1.00
        0.9398000000         1.0000000000
 s    1  1.00
        0.2846000000         1.0000000000
 p    4  1.00
       35.1832000000         0.0195800000
        7.9040000000         0.1241890000
        2.3051000000         0.3947270000
        0.7171000000         0.6273750000
 p    1  1.00
        0.2137000000         1.0000000000

  2 0
 s    3  1.00
       19.2406000000         0.0328280000
        2.8992000000         0.2312080000
        0.6534000000         0.8172380000
 s    1  1.00
        0.1776000000         1.0000000000

  3 0
 s    3  1.00
       19.2406000000         0.0328280000
        2.8992000000         0.2312080000
        0.6534000000         0.8172380000
 s    1  1.00
        0.1776000000         1.0000000000

[MO]
 Sym= A1
 Ene=         8.8065438453e-05
 Spin= Alpha
 Occup=         1.7613087690e-04
  1         1.5492415470e+00
  2        -1.7570206981e+00
  3         8.3132776320e-01
  4        -1.4009272337e+00
  5         0.0000000000e+00
  6         0.0000000000e+00
  7         1.0279139382e-01
  8         0.0000000000e+00
  9         0.0000000000e+00
 10        -4.3751425785e-01
 11        -8.3279827396e-02
 12         6.6690080930e-01
 13        -8.3279827396e-02
 14         6.6690080930e-01
 Sym= A1
 Ene=         1.3526670848e-04
 Spin= Alpha
 Occup=         2.7053341695e-04
  1         7.6534277912e-01
  2        -6.8323763001e-01
  3        -7.6977199094e-01
  4         2.0899025119e+00
  5         0.0000000000e+00
  6         0.0000000000e+00
  7        -2.0908401743e-01
  8         0.0000000000e+00
  9         0.0000000000e+00
 10         7.8948235307e-01
 11         2.3365770945e-01
 12        -1.2507046902e+00
 13         2.3365770945e-01
 14        -1.2507046902e+00
 Sym= B2
 Ene=         2.0375710525e-04
 Spin= Alpha
 Occup=         4.0751421051e-04
  1         0.0000000000e+00
  2         0.0000000000e+00
  3         0.0000000000e+00
  4         0.0000000000e+00
  5         0.0000000000e+00
  6        -4.2400672793e-01
  7         0.0000000000e+00
  8         0.0000000000e+00
  9         1.7630812306e+00
 10         0.0000000000e+00
 11        -4.4245353626e-01
 12         2.0969552355e+00
 13         4.4245353626e-01
 14        -2.0969552355e+00
 Sym= A1
 Ene=         1.0677016623e-03
 Spin= Alpha
 Occup=         2.1354033246e-03
  1         9.5208801926e-02
  2         5.8890096439e-02
  3        -9.8801133201e-01
  4         1.7154193995e+00
  5         0.0000000000e+00
  6         0.0000000000e+00
  7        -9.4236451589e-02
  8         0.0000000000e+00
  9         0.0000000000e+00
 10         8.6309674941e-01
 11        -9.2007303412e-01
 12        -5.8178459572e-03
 13        -9.2007303412e-01
 14        -5.8178459572e-03
 Sym= B2
 Ene=         1.1908043386e-03
 Spin= Alpha
 Occup=         2.3816086773e-03
  1         0.0000000000e+00
  2         0.0000000000e+00
  3         0.0000000000e+00
  4         0.0000000000e+00
  5         0.0000000000e+00
  6        -2.7179482565e-01
  7         0.0000000000e+00
  8         0.0000000000e+00
  9         1.4817805528e+00
 10         0.0000000000e+00
 11         7.6495339249e-01
 12         1.5733351584e-01
 13        -7.6495339249e-01
 14        -1.5733351584e-01
 Sym= A1
 Ene=         5.9067912833e-03
 Spin= Alpha
 Occup=         1.1813582567e-02
  1         1.5397126301e-01
  2         1.7795392235e-01
  3        -1.3075192231e+00
  4         1.0235275489e+00
  5         0.0000000000e+00
  6         0.0000000000e+00
  7         4.1188739583e-01
  8         0.0000000000e+00
  9         0.0000000000e+00
 10        -7.1896064881e-01
 11         1.8339686406e-01
 12        -7.7268811529e-03
 13         1.8339686406e-01
 14        -7.7268811529e-03
 Sym= B1
 Ene=         8.5557823190e-03
 Spin= Alpha
 Occup=         1.7111564638e-02
  1         0.0000000000e+00
  2         0.0000000000e+00
  3         0.0000000000e+00
  4         0.0000000000e+00
  5        -9.1015815985e-01
  6         0.0000000000e+00
  7         0.0000000000e+00
  8         1.0799803033e+00
  9         0.0000000000e+00
 10         0.0000000000e+00
 11         0.0000000000e+00
 12         0.0000000000e+00
 13         0.0000000000e+00
 14         0.0000000000e+00
 Sym= A1
 Ene=         1.1350894065e-02
 Spin= Alpha
 Occup=         2.2701788130e-02
  1         6.7607325917e-02
  2         9.0535576440e-02
  3        -4.3683654703e-01
  4        -1.6569142755e-01
  5         0.0000000000e+00
  6         0.0000000000e+00
  7        -8.5747107034e-01
  8         0.0000000000e+00
  9         0.0000000000e+00
 10         4.5270524228e-01
 11         4.1490664082e-01
 12         1.4497857658e-01
 13         4.1490664082e-01
 14         1.4497857658e-01
 Sym= B2
 Ene=         1.1411003779e-02
 Spin= Alpha
 Occup=         2.2822007559e-02
  1         0.0000000000e+00
  2         0.0000000000e+00
  3         0.0000000000e+00
  4         0.0000000000e+00
  5         0.0000000000e+00
  6         9.6461451494e-01
  7         0.0000000000e+00
  8         0.0000000000e+00
  9        -1.9944685307e-01
 10         0.0000000000e+00
 11         4.5886892491e-01
 12         2.0410064571e-01
 13        -4.5886892491e-01
 14        -2.0410064571e-01
 Sym= B2
 Ene=         9.8675307059e-01
 Spin= Alpha
 Occup=         1.9735061412e+00
  1         0.0000000000e+00
  2         0.0000000000e+00
  3         0.0000000000e+00
  4         0.0000000000e+00
  5         0.0000000000e+00
  6         5.7617761916e-01
  7         0.0000000000e+00
  8         0.0000000000e+00
  9         1.5091736313e-01
 10         0.0000000000e+00
 11        -2.5722011802e-01
 12        -1.3870290394e-01
 13         2.5722011802e-01
 14         1.3870290394e-01
 Sym= A1
 Ene=         9.8798233914e-01
 Spin= Alpha
 Occup=         1.9759646783e+00
  1        -1.1633333493e-02
  2        -1.5280119296e-02
  3         3.4083126034e-02
  4        -7.1521521378e-02
  5         0.0000000000e+00
  6         0.0000000000e+00
  7         6.3219034426e-01
  8         0.0000000000e+00
  9         0.0000000000e+00
 10         3.2311527803e-01
 11         1.7542889691e-01
 12         6.1206241647e-02
 13         1.7542889691e-01
 14         6.1206241647e-02
 Sym= B1
 Ene=         9.9093519820e-01
 Spin= Alpha
 Occup=         1.9818703964e+00
  1         0.0000000000e+00
  2         0.0000000000e+00
  3         0.0000000000e+00
  4         0.0000000000e+00
  5        -7.1816460890e-01
  6         0.0000000000e+00
  7         0.0000000000e+00
  8        -4.2165249420e-01
  9         0.0000000000e+00
 10         0.0000000000e+00
 11         0.0000000000e+00
 12         0.0000000000e+00
 13         0.0000000000e+00
 14         0.0000000000e+00
 Sym= A1
 Ene=         9.9454031447e-01
 Spin= Alpha
 Occup=         1.9890806289e+00
  1         1.3968809164e-01
  2         1.9186178612e-01
  3        -5.4312932817e-01
  4        -5.0984037884e-01
  5         0.0000000000e+00
  6         0.0000000000e+00
  7         1.3398773363e-01
  8         0.0000000000e+00
  9         0.0000000000e+00
 10         1.1241280860e-01
 11        -7.6596469960e-02
 12         1.2509539695e-02
 13        -7.6596469960e-02
 14         1.2509539695e-02
 Sym= A1
 Ene=         9.9987901090e-01
 Spin= Alpha
 Occup=         1.9997580218e+00
  1         5.8057277470e-01
  2         4.6046866404e-01
  3         2.1066863338e-03
  4         2.8822452811e-03
  5         0.0000000000e+00
  6         0.0000000000e+00
  7         2.1776821756e-03
  8         0.0000000000e+00
  9         0.0000000000e+00
 10        -2.8970436445e-04
 11         5.4432182169e-04
 12        -5.5349085347e-05
 13         5.4432182169e-04
 14        -5.5349085347e-05
