[Molden Format]
[Atoms] (AU)
O    1    8           0.0000000000         0.0000000000        -0.1117712977
H    2    1           0.0000000000        -1.4948451743         0.8869458023
H    3    1           0.0000000000         1.4948451743         0.8869458023
[GTO]
  1 0
 s    6  1.00
     7816.5400000000         0.0020310000
     1175.8200000000         0.0154360000
      273.1880000000         0.0737710000
       81.1696000000         0.2476060000
       27.1836000000         0.6118320000
        3.4136000000         0.2412050000
 s    1  1.00
        9.5322000000         1.0000000000
 s    1  1.00
        0.9398000000         1.0000000000
 s    1  1.00
        0.2846000000         1.0000000000
 p    4  1.00
       35.1832000000         0.0195800000
        7.9040000000         0.1241890000
        2.3051000000         0.3947270000
        0.7171000000         0.6273750000
 p    1  1.00
        0.2137000000         1.0000000000

  2 0
 s    3  1.00
       19.2406000000         0.0328280000
        2.8992000000         0.2312080000
        0.6534000000         0.8172380000
 s    1  1.00
        0.1776000000         1.0000000000

  3 0
 s    3  1.00
       19.2406000000         0.0328280000
        2.8992000000         0.2312080000
        0.6534000000         0.8172380000
 s    1  1.00
        0.1776000000         1.0000000000

[MO]
 Sym= A1
 Ene=         9.2427068658e-05
 Spin= Alpha
 Occup=         1.8485413732e-04
  1         1.5708181757e+00
  2        -1.7762894936e+00
  3         8.0858862030e-01
  4        -1.3377303802e+00
  5         0.0000000000e+00
  6         0.0000000000e+00
  7         9.7709289440e-02
  8         0.0000000000e+00
  9         0.0000000000e+00
 10        -4.1420391178e-01
 11        -7.8120799152e-02
 12         6.2993785302e-01
 13        -7.8120799152e-02
 14         6.2993785302e-01
 Sym= A1
 Ene=         1.4494697301e-04
 Spin= Alpha
 Occup=         2.8989394601e-04
  1         7.2062489291e-01
  2        -6.3091800116e-01
  3        -7.9899469637e-01
  4         2.1314875351e+00
  5         0.0000000000e+00
  6         0.0000000000e+00
  7        -2.1435162115e-01
  8         0.0000000000e+00
  9         0.0000000000e+00
 10         8.0221188163e-01
 11         2.3858119631e-01
 12        -1.2688765728e+00
 13         2.3858119631e-01
 14        -1.2688765728e+00
 Sym= B2
 Ene=         2.1672526555e-04
 Spin= Alpha
 Occup=         4.3345053110e-04
  1         0.0000000000e+00
  2         0.0000000000e+00
  3         0.0000000000e+00
  4         0.0000000000e+00
  5         0.0000000000e+00
  6        -4.2775516090e-01
  7         0.0000000000e+00
  8         0.0000000000e+00
  9         1.7573437608e+00
 10         0.0000000000e+00
 11        -4.4857882517e-01
 12         2.0950064996e+00
 13         4.4857882517e-01
 14        -2.0950064996e+00
 Sym= A1
 Ene=         1.1448314150e-03
 Spin= Alpha
 Occup=         2.2896628300e-03
  1         9.2549765561e-02
  2         5.9066231630e-02
  3        -9.7973745906e-01
  4         1.7136624605e+00
  5         0.0000000000e+00
  6         0.0000000000e+00
  7        -8.9444384535e-02
  8         0.0000000000e+00
  9         0.0000000000e+00
 10         8.6353400539e-01
 11        -9.2376410964e-01
 12        -7.6368945696e-03
 13        -9.2376410964e-01
 14        -7.6368945696e-03
 Sym= B2
 Ene=         1.2845117394e-03
 Spin= Alpha
 Occup=         2.5690234788e-03
  1         0.0000000000e+00
  2         0.0000000000e+00
  3         0.0000000000e+00
  4         0.0000000000e+00
  5         0.0000000000e+00
  6        -2.6591788278e-01
  7         0.0000000000e+00
  8         0.0000000000e+00
  9         1.4885400157e+00
 10         0.0000000000e+00
 11         7.6614243478e-01
 12         1.6853295176e-01
 13        -7.6614243478e-01
 14        -1.6853295176e-01
 Sym= A1
 Ene=         6.6893976333e-03
 Spin= Alpha
 Occup=         1.3378795267e-02
  1         1.5401826956e-01
  2         1.8114352510e-01
  3        -1.3174246474e+00
  4         1.0221326627e+00
  5         0.0000000000e+00
  6         0.0000000000e+00
  7         3.9586060840e-01
  8         0.0000000000e+00
  9         0.0000000000e+00
 10        -7.0903363276e-01
 11         1.8602464988e-01
 12        -1.5109451607e-03
 13         1.8602464988e-01
 14        -1.5109451607e-03
 Sym= B1
 Ene=         9.8973052755e-03
 Spin= Alpha
 Occup=         1.9794610551e-02
  1         0.0000000000e+00
  2         0.0000000000e+00
  3         0.0000000000e+00
  4         0.0000000000e+00
  5        -9.1042647678e-01
  6         0.0000000000e+00
  7         0.0000000000e+00
  8         1.0798226550e+00
  9         0.0000000000e+00
 10         0.0000000000e+00
 11         0.0000000000e+00
 12         0.0000000000e+00
 13         0.0000000000e+00
 14         0.0000000000e+00
 Sym= A1
 Ene=         1.2921648056e-02
 Spin= Alpha
 Occup=         2.5843296111e-02
  1         6.4745162814e-02
  2         8.7554553825e-02
  3        -4.1488836045e-01
  4        -1.8343667713e-01
  5         0.0000000000e+00
  6         0.0000000000e+00
  7        -8.6493203726e-01
  8         0.0000000000e+00
  9         0.0000000000e+00
 10         4.6767906594e-01
 11         4.0332130801e-01
 12         1.5180685120e-01
 13         4.0332130801e-01
 14         1.5180685120e-01
 Sym= B2
 Ene=         1.2985672989e-02
 Spin= Alpha
 Occup=         2.5971345978e-02
  1         0.0000000000e+00
  2         0.0000000000e+00
  3         0.0000000000e+00
  4         0.0000000000e+00
  5         0.0000000000e+00
  6         9.6433329019e-01
  7         0.0000000000e+00
  8         0.0000000000e+00
  9        -2.0124004829e-01
 10         0.0000000000e+00
 11         4.5061506794e-01
 12         2.1423815917e-01
 13        -4.5061506794e-01
 14        -2.1423815917e-01
 Sym= B2
 Ene=         9.8505416735e-01
 Spin= Alpha
 Occup=         1.9701083347e+00
  1         0.0000000000e+00
  2         0.0000000000e+00
  3         0.0000000000e+00
  4         0.0000000000e+00
  5         0.0000000000e+00
  6         5.7661984983e-01
  7         0.0000000000e+00
  8         0.0000000000e+00
  9         1.4892313778e-01
 10         0.0000000000e+00
 11        -2.5766367920e-01
 12        -1.3970356380e-01
 13         2.5766367920e-01
 14         1.3970356380e-01
 Sym= A1
 Ene=         9.8630489378e-01
 Spin= Alpha
 Occup=         1.9726097876e+00
  1        -1.0920598542e-02
  2        -1.4351362848e-02
  3         3.2032817562e-02
  4        -7.6182278453e-02
  5         0.0000000000e+00
  6         0.0000000000e+00
  7         6.3263682921e-01
  8         0.0000000000e+00
  9         0.0000000000e+00
 10         3.2237570742e-01
 11         1.7573084166e-01
 12         6.2504612266e-02
 13         1.7573084166e-01
 14         6.2504612266e-02
 Sym= B1
 Ene=         9.8954063118e-01
 Spin= Alpha
 Occup=         1.9790812624e+00
  1         0.0000000000e+00
  2         0.0000000000e+00
  3         0.0000000000e+00
  4         0.0000000000e+00
  5        -7.1782442965e-01
  6         0.0000000000e+00
  7         0.0000000000e+00
  8        -4.2205605696e-01
  9         0.0000000000e+00
 10         0.0000000000e+00
 11         0.0000000000e+00
 12         0.0000000000e+00
 13         0.0000000000e+00
 14         0.0000000000e+00
 Sym= A1
 Ene=         9.9384867791e-01
 Spin= Alpha
 Occup=         1.9876973558e+00
  1         1.3997323587e-01
  2         1.9217062790e-01
  3        -5.4363989173e-01
  4        -5.0937079067e-01
  5         0.0000000000e+00
  6         0.0000000000e+00
  7         1.3096550662e-01
  8         0.0000000000e+00
  9         0.0000000000e+00
 10         1.1110971762e-01
 11        -7.7275619357e-02
 12         1.2318143970e-02
 13        -7.7275619357e-02
 14         1.2318143970e-02
 Sym= A1
 Ene=         9.9987416337e-01
 Spin= Alpha
 Occup=         1.9997483267e+00
  1         5.8051152868e-01
  2         4.6041127840e-01
  3         2.3141959134e-03
  4         3.0383460270e-03
  5         0.0000000000e+00
  6         0.0000000000e+00
  7         2.0646865242e-03
  8         0.0000000000e+00
  9         0.0000000000e+00
 10        -3.7219416662e-04
 11         5.5857105892e-04
 12        -5.3004344654e-05
 13         5.5857105892e-04
 14        -5.3004344654e-05
