[Molden Format]
[Atoms] (AU)
O    1    8           0.0000000000         0.0000000000        -0.1117712977
H    2    1           0.0000000000        -1.4948451743         0.8869458023
H    3    1           0.0000000000         1.4948451743         0.8869458023
[GTO]
  1 0
 s    6  1.00
     7816.5400000000         0.0020310000
     1175.8200000000         0.0154360000
      273.1880000000         0.0737710000
       81.1696000000         0.2476060000
       27.1836000000         0.6118320000
        3.4136000000         0.2412050000
 s    1  1.00
        9.5322000000         1.0000000000
 s    1  1.00
        0.9398000000         1.0000000000
 s    1  1.00
        0.2846000000         1.0000000000
 p    4  1.00
       35.1832000000         0.0195800000
        7.9040000000         0.1241890000
        2.3051000000         0.3947270000
        0.7171000000         0.6273750000
 p    1  1.00
        0.2137000000         1.0000000000

  2 0
 s    3  1.00
       19.2406000000         0.0328280000
        2.8992000000         0.2312080000
        0.6534000000         0.8172380000
 s    1  1.00
        0.1776000000         1.0000000000

  3 0
 s    3  1.00
       19.2406000000         0.0328280000
        2.8992000000         0.2312080000
        0.6534000000         0.8172380000
 s    1  1.00
        0.1776000000         1.0000000000

[MO]
 Sym= A1
 Ene=         8.8065432611e-05
 Spin= Alpha
 Occup=         1.7613086522e-04
  1         1.5492400755e+00
  2        -1.7570193049e+00
  3         8.3132894383e-01
  4        -1.4009310031e+00
  5         0.0000000000e+00
  6         0.0000000000e+00
  7         1.0279160802e-01
  8         0.0000000000e+00
  9         0.0000000000e+00
 10        -4.3751545679e-01
 11        -8.3280418633e-02
 12         6.6690332438e-01
 13        -8.3280418633e-02
 14         6.6690332438e-01
 Sym= A1
 Ene=         1.3526644029e-04
 Spin= Alpha
 Occup=         2.7053288057e-04
  1         7.6534578051e-01
  2        -6.8324117070e-01
  3        -7.6976979189e-01
  4         2.0898991778e+00
  5         0.0000000000e+00
  6         0.0000000000e+00
  7        -2.0908334369e-01
  8         0.0000000000e+00
  9         0.0000000000e+00
 10         7.8948069404e-01
 11         2.3365775481e-01
 12        -1.2507034552e+00
 13         2.3365775481e-01
 14        -1.2507034552e+00
 Sym= B2
 Ene=         2.0375690702e-04
 Spin= Alpha
 Occup=         4.0751381403e-04
  1         0.0000000000e+00
  2         0.0000000000e+00
  3         0.0000000000e+00
  4         0.0000000000e+00
  5         0.0000000000e+00
  6        -4.2400662517e-01
  7         0.0000000000e+00
  8         0.0000000000e+00
  9         1.7630820423e+00
 10         0.0000000000e+00
 11        -4.4245297995e-01
 12         2.0969553763e+00
 13         4.4245297995e-01
 14        -2.0969553763e+00
 Sym= A1
 Ene=         1.0677016446e-03
 Spin= Alpha
 Occup=         2.1354032893e-03
  1         9.5208737150e-02
  2         5.8890194548e-02
  3        -9.8801167058e-01
  4         1.7154205053e+00
  5         0.0000000000e+00
  6         0.0000000000e+00
  7        -9.4236692852e-02
  8         0.0000000000e+00
  9         0.0000000000e+00
 10         8.6309742161e-01
 11        -9.2007291428e-01
 12        -5.8185942926e-03
 13        -9.2007291428e-01
 14        -5.8185942926e-03
 Sym= B2
 Ene=         1.1908040642e-03
 Spin= Alpha
 Occup=         2.3816081284e-03
  1         0.0000000000e+00
  2         0.0000000000e+00
  3         0.0000000000e+00
  4         0.0000000000e+00
  5         0.0000000000e+00
  6        -2.7179431181e-01
  7         0.0000000000e+00
  8         0.0000000000e+00
  9         1.4817794667e+00
 10         0.0000000000e+00
 11         7.6495379184e-01
 12         1.5733236331e-01
 13        -7.6495379184e-01
 14        -1.5733236331e-01
 Sym= A1
 Ene=         5.9067925016e-03
 Spin= Alpha
 Occup=         1.1813585003e-02
  1         1.5397124728e-01
  2         1.7795404316e-01
  3        -1.3075195618e+00
  4         1.0235274946e+00
  5         0.0000000000e+00
  6         0.0000000000e+00
  7         4.1188707901e-01
  8         0.0000000000e+00
  9         0.0000000000e+00
 10        -7.1896032533e-01
 11         1.8339684298e-01
 12        -7.7266382590e-03
 13         1.8339684298e-01
 14        -7.7266382590e-03
 Sym= B1
 Ene=         8.5557819143e-03
 Spin= Alpha
 Occup=         1.7111563829e-02
  1         0.0000000000e+00
  2         0.0000000000e+00
  3         0.0000000000e+00
  4         0.0000000000e+00
  5        -9.1015816693e-01
  6         0.0000000000e+00
  7         0.0000000000e+00
  8         1.0799802992e+00
  9         0.0000000000e+00
 10         0.0000000000e+00
 11         0.0000000000e+00
 12         0.0000000000e+00
 13         0.0000000000e+00
 14         0.0000000000e+00
 Sym= A1
 Ene=         1.1350891717e-02
 Spin= Alpha
 Occup=         2.2701783434e-02
  1         6.7607297862e-02
  2         9.0535563851e-02
  3        -4.3683655551e-01
  4        -1.6569058948e-01
  5         0.0000000000e+00
  6         0.0000000000e+00
  7        -8.5747128007e-01
  8         0.0000000000e+00
  9         0.0000000000e+00
 10         4.5270612350e-01
 11         4.1490677617e-01
 12         1.4497775002e-01
 13         4.1490677617e-01
 14         1.4497775002e-01
 Sym= B2
 Ene=         1.1411005745e-02
 Spin= Alpha
 Occup=         2.2822011489e-02
  1         0.0000000000e+00
  2         0.0000000000e+00
  3         0.0000000000e+00
  4         0.0000000000e+00
  5         0.0000000000e+00
  6         9.6461475607e-01
  7         0.0000000000e+00
  8         0.0000000000e+00
  9        -1.9944772966e-01
 10         0.0000000000e+00
 11         4.5886879001e-01
 12         2.0410004755e-01
 13        -4.5886879001e-01
 14        -2.0410004755e-01
 Sym= B2
 Ene=         9.8675306530e-01
 Spin= Alpha
 Occup=         1.9735061306e+00
  1         0.0000000000e+00
  2         0.0000000000e+00
  3         0.0000000000e+00
  4         0.0000000000e+00
  5         0.0000000000e+00
  6         5.7617753349e-01
  7         0.0000000000e+00
  8         0.0000000000e+00
  9         1.5091738567e-01
 10         0.0000000000e+00
 11        -2.5722012797e-01
 12        -1.3870296292e-01
 13         2.5722012797e-01
 14         1.3870296292e-01
 Sym= A1
 Ene=         9.8798234605e-01
 Spin= Alpha
 Occup=         1.9759646921e+00
  1        -1.1633390265e-02
  2        -1.5280184987e-02
  3         3.4083270242e-02
  4        -7.1521193282e-02
  5         0.0000000000e+00
  6         0.0000000000e+00
  7         6.3219038851e-01
  8         0.0000000000e+00
  9         0.0000000000e+00
 10         3.2311537173e-01
 11         1.7542888573e-01
 12         6.1206005518e-02
 13         1.7542888573e-01
 14         6.1206005518e-02
 Sym= B1
 Ene=         9.9093519825e-01
 Spin= Alpha
 Occup=         1.9818703965e+00
  1         0.0000000000e+00
  2         0.0000000000e+00
  3         0.0000000000e+00
  4         0.0000000000e+00
  5        -7.1816459992e-01
  6         0.0000000000e+00
  7         0.0000000000e+00
  8        -4.2165250485e-01
  9         0.0000000000e+00
 10         0.0000000000e+00
 11         0.0000000000e+00
 12         0.0000000000e+00
 13         0.0000000000e+00
 14         0.0000000000e+00
 Sym= A1
 Ene=         9.9454031312e-01
 Spin= Alpha
 Occup=         1.9890806262e+00
  1         1.3968810185e-01
  2         1.9186178275e-01
  3        -5.4312919062e-01
  4        -5.0984039415e-01
  5         0.0000000000e+00
  6         0.0000000000e+00
  7         1.3398787368e-01
  8         0.0000000000e+00
  9         0.0000000000e+00
 10         1.1241288334e-01
 11        -7.6596471083e-02
 12         1.2509476762e-02
 13        -7.6596471083e-02
 14         1.2509476762e-02
 Sym= A1
 Ene=         9.9987901092e-01
 Spin= Alpha
 Occup=         1.9997580218e+00
  1         5.8057275922e-01
  2         4.6046866881e-01
  3         2.1066857960e-03
  4         2.8823030338e-03
  5         0.0000000000e+00
  6         0.0000000000e+00
  7         2.1776978144e-03
  8         0.0000000000e+00
  9         0.0000000000e+00
 10        -2.8969476698e-04
 11         5.4433180067e-04
 12        -5.5355666883e-05
 13         5.4433180067e-04
 14        -5.5355666883e-05
