[Molden Format]
[Atoms] (AU)
O    1    8           0.0000000000         0.0000000000        -0.1117712977
H    2    1           0.0000000000        -1.4948451743         0.8869458023
H    3    1           0.0000000000         1.4948451743         0.8869458023
[GTO]
  1 0
 s    6  1.00
     7816.5400000000         0.0020310000
     1175.8200000000         0.0154360000
      273.1880000000         0.0737710000
       81.1696000000         0.2476060000
       27.1836000000         0.6118320000
        3.4136000000         0.2412050000
 s    1  1.00
        9.5322000000         1.0000000000
 s    1  1.00
        0.9398000000         1.0000000000
 s    1  1.00
        0.2846000000         1.0000000000
 p    4  1.00
       35.1832000000         0.0195800000
        7.9040000000         0.1241890000
        2.3051000000         0.3947270000
        0.7171000000         0.6273750000
 p    1  1.00
        0.2137000000         1.0000000000

  2 0
 s    3  1.00
       19.2406000000         0.0328280000
        2.8992000000         0.2312080000
        0.6534000000         0.8172380000
 s    1  1.00
        0.1776000000         1.0000000000

  3 0
 s    3  1.00
       19.2406000000         0.0328280000
        2.8992000000         0.2312080000
        0.6534000000         0.8172380000
 s    1  1.00
        0.1776000000         1.0000000000

[MO]
 Sym= A1
 Ene=         9.2427071622e-05
 Spin= Alpha
 Occup=         1.8485414324e-04
  1         1.5708182913e+00
  2        -1.7762895971e+00
  3         8.0858850504e-01
  4        -1.3377300572e+00
  5         0.0000000000e+00
  6         0.0000000000e+00
  7         9.7709257922e-02
  8         0.0000000000e+00
  9         0.0000000000e+00
 10        -4.1420379709e-01
 11        -7.8120747754e-02
 12         6.2993764644e-01
 13        -7.8120747754e-02
 14         6.2993764644e-01
 Sym= A1
 Ene=         1.4494699740e-04
 Spin= Alpha
 Occup=         2.8989399480e-04
  1         7.2062464152e-01
  2        -6.3091770995e-01
  3        -7.9899486592e-01
  4         2.1314878146e+00
  5         0.0000000000e+00
  6         0.0000000000e+00
  7        -2.1435164624e-01
  8         0.0000000000e+00
  9         0.0000000000e+00
 10         8.0221199137e-01
 11         2.3858117481e-01
 12        -1.2688766741e+00
 13         2.3858117481e-01
 14        -1.2688766741e+00
 Sym= B2
 Ene=         2.1672530481e-04
 Spin= Alpha
 Occup=         4.3345060963e-04
  1         0.0000000000e+00
  2         0.0000000000e+00
  3         0.0000000000e+00
  4         0.0000000000e+00
  5         0.0000000000e+00
  6        -4.2775515398e-01
  7         0.0000000000e+00
  8         0.0000000000e+00
  9         1.7573437205e+00
 10         0.0000000000e+00
 11        -4.4857884596e-01
 12         2.0950064951e+00
 13         4.4857884596e-01
 14        -2.0950064951e+00
 Sym= A1
 Ene=         1.1448314377e-03
 Spin= Alpha
 Occup=         2.2896628754e-03
  1         9.2549759443e-02
  2         5.9066229506e-02
  3        -9.7973741230e-01
  4         1.7136623627e+00
  5         0.0000000000e+00
  6         0.0000000000e+00
  7        -8.9444358778e-02
  8         0.0000000000e+00
  9         0.0000000000e+00
 10         8.6353395480e-01
 11        -9.2376412745e-01
 12        -7.6368371834e-03
 13        -9.2376412745e-01
 14        -7.6368371834e-03
 Sym= B2
 Ene=         1.2845117467e-03
 Spin= Alpha
 Occup=         2.5690234934e-03
  1         0.0000000000e+00
  2         0.0000000000e+00
  3         0.0000000000e+00
  4         0.0000000000e+00
  5         0.0000000000e+00
  6        -2.6591788749e-01
  7         0.0000000000e+00
  8         0.0000000000e+00
  9         1.4885400617e+00
 10         0.0000000000e+00
 11         7.6614242613e-01
 12         1.6853301028e-01
 13        -7.6614242613e-01
 14        -1.6853301028e-01
 Sym= A1
 Ene=         6.6893974848e-03
 Spin= Alpha
 Occup=         1.3378794970e-02
  1         1.5401826949e-01
  2         1.8114352367e-01
  3        -1.3174246440e+00
  4         1.0221326683e+00
  5         0.0000000000e+00
  6         0.0000000000e+00
  7         3.9586061191e-01
  8         0.0000000000e+00
  9         0.0000000000e+00
 10        -7.0903363677e-01
 11         1.8602465138e-01
 12        -1.5109521367e-03
 13         1.8602465138e-01
 14        -1.5109521367e-03
 Sym= B1
 Ene=         9.8973047928e-03
 Spin= Alpha
 Occup=         1.9794609586e-02
  1         0.0000000000e+00
  2         0.0000000000e+00
  3         0.0000000000e+00
  4         0.0000000000e+00
  5        -9.1042647632e-01
  6         0.0000000000e+00
  7         0.0000000000e+00
  8         1.0798226552e+00
  9         0.0000000000e+00
 10         0.0000000000e+00
 11         0.0000000000e+00
 12         0.0000000000e+00
 13         0.0000000000e+00
 14         0.0000000000e+00
 Sym= A1
 Ene=         1.2921646737e-02
 Spin= Alpha
 Occup=         2.5843293473e-02
  1         6.4745164587e-02
  2         8.7554555844e-02
  3        -4.1488837886e-01
  4        -1.8343665819e-01
  5         0.0000000000e+00
  6         0.0000000000e+00
  7        -8.6493203775e-01
  8         0.0000000000e+00
  9         0.0000000000e+00
 10         4.6767906761e-01
 11         4.0332128943e-01
 12         1.5180686228e-01
 13         4.0332128943e-01
 14         1.5180686228e-01
 Sym= B2
 Ene=         1.2985672390e-02
 Spin= Alpha
 Occup=         2.5971344780e-02
  1         0.0000000000e+00
  2         0.0000000000e+00
  3         0.0000000000e+00
  4         0.0000000000e+00
  5         0.0000000000e+00
  6         9.6433329059e-01
  7         0.0000000000e+00
  8         0.0000000000e+00
  9        -2.0124005954e-01
 10         0.0000000000e+00
 11         4.5061506282e-01
 12         2.1423815861e-01
 13        -4.5061506282e-01
 14        -2.1423815861e-01
 Sym= B2
 Ene=         9.8505416814e-01
 Spin= Alpha
 Occup=         1.9701083363e+00
  1         0.0000000000e+00
  2         0.0000000000e+00
  3         0.0000000000e+00
  4         0.0000000000e+00
  5         0.0000000000e+00
  6         5.7661985212e-01
  7         0.0000000000e+00
  8         0.0000000000e+00
  9         1.4892313851e-01
 10         0.0000000000e+00
 11        -2.5766367768e-01
 12        -1.3970356264e-01
 13         2.5766367768e-01
 14         1.3970356264e-01
 Sym= A1
 Ene=         9.8630489471e-01
 Spin= Alpha
 Occup=         1.9726097894e+00
  1        -1.0920593698e-02
  2        -1.4351355641e-02
  3         3.2032793349e-02
  4        -7.6182301027e-02
  5         0.0000000000e+00
  6         0.0000000000e+00
  7         6.3263683110e-01
  8         0.0000000000e+00
  9         0.0000000000e+00
 10         3.2237571081e-01
 11         1.7573083813e-01
 12         6.2504619154e-02
 13         1.7573083813e-01
 14         6.2504619154e-02
 Sym= B1
 Ene=         9.8954063170e-01
 Spin= Alpha
 Occup=         1.9790812634e+00
  1         0.0000000000e+00
  2         0.0000000000e+00
  3         0.0000000000e+00
  4         0.0000000000e+00
  5        -7.1782443023e-01
  6         0.0000000000e+00
  7         0.0000000000e+00
  8        -4.2205605627e-01
  9         0.0000000000e+00
 10         0.0000000000e+00
 11         0.0000000000e+00
 12         0.0000000000e+00
 13         0.0000000000e+00
 14         0.0000000000e+00
 Sym= A1
 Ene=         9.9384867812e-01
 Spin= Alpha
 Occup=         1.9876973562e+00
  1         1.3997323682e-01
  2         1.9217062900e-01
  3        -5.4363989377e-01
  4        -5.0937079024e-01
  5         0.0000000000e+00
  6         0.0000000000e+00
  7         1.3096548372e-01
  8         0.0000000000e+00
  9         0.0000000000e+00
 10         1.1110970359e-01
 11        -7.7275626212e-02
 12         1.2318144447e-02
 13        -7.7275626212e-02
 14         1.2318144447e-02
 Sym= A1
 Ene=         9.9987416337e-01
 Spin= Alpha
 Occup=         1.9997483267e+00
  1         5.8051152857e-01
  2         4.6041127824e-01
  3         2.3141963797e-03
  4         3.0383462235e-03
  5         0.0000000000e+00
  6         0.0000000000e+00
  7         2.0646875124e-03
  8         0.0000000000e+00
  9         0.0000000000e+00
 10        -3.7219375397e-04
 11         5.5857136808e-04
 12        -5.3004233175e-05
 13         5.5857136808e-04
 14        -5.3004233175e-05
