[Molden Format]
[Atoms] (AU)
O    1    8           0.0000000000         0.0000000000        -0.1086931105
H    2    1           0.0000000000         0.0000000000         1.7250385401
[GTO]
  1 0
 s    6  1.00
     7816.5400000000         0.0020310000
     1175.8200000000         0.0154360000
      273.1880000000         0.0737710000
       81.1696000000         0.2476060000
       27.1836000000         0.6118320000
        3.4136000000         0.2412050000
 s    1  1.00
        9.5322000000         1.0000000000
 s    1  1.00
        0.9398000000         1.0000000000
 s    1  1.00
        0.2846000000         1.0000000000
 p    4  1.00
       35.1832000000         0.0195800000
        7.9040000000         0.1241890000
        2.3051000000         0.3947270000
        0.7171000000         0.6273750000
 p    1  1.00
        0.2137000000         1.0000000000

  2 0
 s    3  1.00
       19.2406000000         0.0328280000
        2.8992000000         0.2312080000
        0.6534000000         0.8172380000
 s    1  1.00
        0.1776000000         1.0000000000

[MO]
 Sym= A
 Ene=        -2.0615710983e+01
 Spin= Alpha
 Occup=         1.0000000000e+00
  1         5.8108007018e-01
  2         4.6130593754e-01
  3        -4.0285050219e-04
  4         1.5895954939e-03
  5         3.1042537880e-16
  6        -1.2062683435e-16
  7         1.3597698948e-03
  8        -2.6315874876e-16
  9         3.4829793992e-16
 10        -4.2119667514e-04
 11         5.9581753333e-05
 12        -1.2579789731e-04
 Sym= A
 Ene=        -1.3129580908e+00
 Spin= Alpha
 Occup=         1.0000000000e+00
  1         1.3525378384e-01
  2         1.8780859882e-01
  3        -5.4205679840e-01
  4        -4.6908097094e-01
  5         3.4119417128e-17
  6        -3.7342342799e-16
  7        -1.2380410666e-01
  8        -1.2175255273e-16
  9        -6.0545639847e-16
 10        -2.5936867263e-02
 11        -1.6737877939e-01
 12        -1.3319905569e-02
 Sym= A
 Ene=        -6.4773340802e-01
 Spin= Alpha
 Occup=         1.0000000000e+00
  1         4.5709571220e-02
  2         6.3281039823e-02
  3        -1.8386326494e-01
  4        -2.8331901399e-01
  5         4.4238809749e-16
  6        -1.3496165950e-15
  7         6.0205288636e-01
  8         2.0313392663e-16
  9        -3.7230499269e-16
 10         2.3713552805e-01
 11         2.8586012943e-01
 12         1.3586336140e-01
 Sym= A
 Ene=        -5.3355337358e-01
 Spin= Alpha
 Occup=         1.0000000000e+00
  1         3.2626494357e-16
  2         7.8772635108e-17
  3        -1.1994964414e-15
  4         2.0644191459e-16
  5         3.1653300553e-02
  6         7.4844847267e-01
  7         7.4081263969e-16
  8         1.6232634863e-02
  9         3.8382382115e-01
 10         7.2499802906e-16
 11         4.2781980671e-16
 12        -7.3142196920e-16
 Sym= A
 Ene=        -2.4153414573e-01
 Spin= Alpha
 Occup=         1.0000000000e+00
  1         2.0794873291e-16
  2        -2.0061335764e-16
  3        -4.0177457598e-17
  4         2.2744972475e-16
  5         7.8138093408e-01
  6        -3.3046076592e-02
  7        -4.9839027522e-17
  8         3.4217368363e-01
  9        -1.4471171824e-02
 10        -1.5603198531e-16
 11        -1.7268764584e-16
 12        -3.0940246435e-16
 Sym= A
 Ene=         2.3015489360e-01
 Spin= Alpha
 Occup=         0.0000000000e+00
  1         3.9759622702e-02
  2         5.3620900161e-02
  3        -9.6090175636e-02
  4        -9.7602216841e-01
  5         3.7812867647e-17
  6         4.2264304082e-16
  7        -3.3858028468e-01
  8         2.4667070215e-16
  9        -3.3077499801e-16
 10        -6.9675614522e-01
 11         6.4269159905e-02
 12         1.7092603054e+00
 Sym= A
 Ene=         8.4628140652e-01
 Spin= Alpha
 Occup=         0.0000000000e+00
  1        -5.3814728467e-16
  2         1.2740450464e-16
  3        -1.8235736589e-17
  4         7.1719001600e-15
  5         3.7388836854e-02
  6         8.8406634854e-01
  7        -8.8969191695e-15
  8        -4.6220754241e-02
  9        -1.0928987598e+00
 10         1.9484105425e-14
 11        -6.9984481983e-15
 12        -6.4126644290e-15
 Sym= A
 Ene=         8.5081838845e-01
 Spin= Alpha
 Occup=         0.0000000000e+00
  1        -1.9798164048e-16
  2         2.5836088827e-16
  3        -5.9147527483e-16
  4        -2.3556355723e-15
  5         8.5509780769e-01
  6        -3.6163702508e-02
  7         5.1836146003e-15
  8        -1.1066461020e+00
  9         4.6802155327e-02
 10        -8.2763692805e-15
 11        -2.7012995315e-16
 12         5.0284263259e-15
 Sym= A
 Ene=         8.9902530370e-01
 Spin= Alpha
 Occup=         0.0000000000e+00
  1         3.2158971557e-02
  2         4.8347118555e-02
  3        -2.0222345433e-01
  4        -2.5104681482e-01
  5        -4.0605847864e-15
  6         1.1191127836e-14
  7         7.9345923699e-01
  8         5.3843215293e-15
  9        -1.4089642902e-14
 10        -1.4535112816e+00
 11         3.3800133783e-01
 12         4.9802423771e-01
 Sym= A
 Ene=         1.1245703704e+00
 Spin= Alpha
 Occup=         0.0000000000e+00
  1         1.0250363941e-02
  2         1.1723908055e-02
  3         2.4129354754e-02
  4        -6.0681848209e-02
  5         1.6745655963e-15
  6         1.4685598384e-15
  7        -5.1396250376e-01
  8        -2.1382392963e-15
  9        -2.1486822771e-15
 10        -4.3735182979e-02
 11         1.3808315855e+00
 12        -9.1673371497e-01
 Sym= A
 Ene=         1.4965940629e+00
 Spin= Alpha
 Occup=         0.0000000000e+00
  1         1.4450753372e-01
  2         2.5015286693e-01
  3        -1.8607309035e+00
  4         2.4538016610e+00
  5         3.3615666866e-16
  6        -2.1087157928e-15
  7        -1.8968618131e-01
  8        -3.2509574979e-16
  9         2.6326818525e-15
 10         8.2825161949e-01
 11        -9.1186241526e-02
 12        -1.1696850521e+00
 Sym= A
 Ene=         4.3215695056e+01
 Spin= Alpha
 Occup=         0.0000000000e+00
  1         1.7311686597e+00
  2        -1.8732932646e+00
  3         3.6651152170e-01
  4        -2.8722393924e-01
  5         1.7999034253e-16
  6         5.6944636020e-17
  7         1.1482292407e-02
  8        -2.4387552587e-16
  9        -4.9742926638e-16
 10        -6.8893482358e-02
 11        -2.4437481816e-03
 12         1.1649731852e-01
 Sym= A
 Ene=        -2.0615710983e+01
 Spin= Beta
 Occup=         1.0000000000e+00
  1         5.8108007018e-01
  2         4.6130593754e-01
  3        -4.0285050219e-04
  4         1.5895954939e-03
  5         3.1042537880e-16
  6        -1.2062683435e-16
  7         1.3597698948e-03
  8        -2.6315874876e-16
  9         3.4829793992e-16
 10        -4.2119667514e-04
 11         5.9581753333e-05
 12        -1.2579789731e-04
 Sym= A
 Ene=        -1.3129580908e+00
 Spin= Beta
 Occup=         1.0000000000e+00
  1         1.3525378384e-01
  2         1.8780859882e-01
  3        -5.4205679840e-01
  4        -4.6908097094e-01
  5         3.4119417128e-17
  6        -3.7342342799e-16
  7        -1.2380410666e-01
  8        -1.2175255273e-16
  9        -6.0545639847e-16
 10        -2.5936867263e-02
 11        -1.6737877939e-01
 12        -1.3319905569e-02
 Sym= A
 Ene=        -6.4773340802e-01
 Spin= Beta
 Occup=         1.0000000000e+00
  1         4.5709571220e-02
  2         6.3281039823e-02
  3        -1.8386326494e-01
  4        -2.8331901399e-01
  5         4.4238809749e-16
  6        -1.3496165950e-15
  7         6.0205288636e-01
  8         2.0313392663e-16
  9        -3.7230499269e-16
 10         2.3713552805e-01
 11         2.8586012943e-01
 12         1.3586336140e-01
 Sym= A
 Ene=        -5.3355337358e-01
 Spin= Beta
 Occup=         1.0000000000e+00
  1         3.2626494357e-16
  2         7.8772635108e-17
  3        -1.1994964414e-15
  4         2.0644191459e-16
  5         3.1653300553e-02
  6         7.4844847267e-01
  7         7.4081263969e-16
  8         1.6232634863e-02
  9         3.8382382115e-01
 10         7.2499802906e-16
 11         4.2781980671e-16
 12        -7.3142196920e-16
 Sym= A
 Ene=        -2.4153414573e-01
 Spin= Beta
 Occup=         0.0000000000e+00
  1         2.0794873291e-16
  2        -2.0061335764e-16
  3        -4.0177457598e-17
  4         2.2744972475e-16
  5         7.8138093408e-01
  6        -3.3046076592e-02
  7        -4.9839027522e-17
  8         3.4217368363e-01
  9        -1.4471171824e-02
 10        -1.5603198531e-16
 11        -1.7268764584e-16
 12        -3.0940246435e-16
 Sym= A
 Ene=         2.3015489360e-01
 Spin= Beta
 Occup=         0.0000000000e+00
  1         3.9759622702e-02
  2         5.3620900161e-02
  3        -9.6090175636e-02
  4        -9.7602216841e-01
  5         3.7812867647e-17
  6         4.2264304082e-16
  7        -3.3858028468e-01
  8         2.4667070215e-16
  9        -3.3077499801e-16
 10        -6.9675614522e-01
 11         6.4269159905e-02
 12         1.7092603054e+00
 Sym= A
 Ene=         8.4628140652e-01
 Spin= Beta
 Occup=         0.0000000000e+00
  1        -5.3814728467e-16
  2         1.2740450464e-16
  3        -1.8235736589e-17
  4         7.1719001600e-15
  5         3.7388836854e-02
  6         8.8406634854e-01
  7        -8.8969191695e-15
  8        -4.6220754241e-02
  9        -1.0928987598e+00
 10         1.9484105425e-14
 11        -6.9984481983e-15
 12        -6.4126644290e-15
 Sym= A
 Ene=         8.5081838845e-01
 Spin= Beta
 Occup=         0.0000000000e+00
  1        -1.9798164048e-16
  2         2.5836088827e-16
  3        -5.9147527483e-16
  4        -2.3556355723e-15
  5         8.5509780769e-01
  6        -3.6163702508e-02
  7         5.1836146003e-15
  8        -1.1066461020e+00
  9         4.6802155327e-02
 10        -8.2763692805e-15
 11        -2.7012995315e-16
 12         5.0284263259e-15
 Sym= A
 Ene=         8.9902530370e-01
 Spin= Beta
 Occup=         0.0000000000e+00
  1         3.2158971557e-02
  2         4.8347118555e-02
  3        -2.0222345433e-01
  4        -2.5104681482e-01
  5        -4.0605847864e-15
  6         1.1191127836e-14
  7         7.9345923699e-01
  8         5.3843215293e-15
  9        -1.4089642902e-14
 10        -1.4535112816e+00
 11         3.3800133783e-01
 12         4.9802423771e-01
 Sym= A
 Ene=         1.1245703704e+00
 Spin= Beta
 Occup=         0.0000000000e+00
  1         1.0250363941e-02
  2         1.1723908055e-02
  3         2.4129354754e-02
  4        -6.0681848209e-02
  5         1.6745655963e-15
  6         1.4685598384e-15
  7        -5.1396250376e-01
  8        -2.1382392963e-15
  9        -2.1486822771e-15
 10        -4.3735182979e-02
 11         1.3808315855e+00
 12        -9.1673371497e-01
 Sym= A
 Ene=         1.4965940629e+00
 Spin= Beta
 Occup=         0.0000000000e+00
  1         1.4450753372e-01
  2         2.5015286693e-01
  3        -1.8607309035e+00
  4         2.4538016610e+00
  5         3.3615666866e-16
  6        -2.1087157928e-15
  7        -1.8968618131e-01
  8        -3.2509574979e-16
  9         2.6326818525e-15
 10         8.2825161949e-01
 11        -9.1186241526e-02
 12        -1.1696850521e+00
 Sym= A
 Ene=         4.3215695056e+01
 Spin= Beta
 Occup=         0.0000000000e+00
  1         1.7311686597e+00
  2        -1.8732932646e+00
  3         3.6651152170e-01
  4        -2.8722393924e-01
  5         1.7999034253e-16
  6         5.6944636020e-17
  7         1.1482292407e-02
  8        -2.4387552587e-16
  9        -4.9742926638e-16
 10        -6.8893482358e-02
 11        -2.4437481816e-03
 12         1.1649731852e-01
