[Molden Format]
[Atoms] (AU)
O    1    8           0.0000000000         0.0000000000        -0.1086931105
H    2    1           0.0000000000         0.0000000000         1.7250385401
[GTO]
  1 0
 s    6  1.00
     7816.5400000000         0.0020310000
     1175.8200000000         0.0154360000
      273.1880000000         0.0737710000
       81.1696000000         0.2476060000
       27.1836000000         0.6118320000
        3.4136000000         0.2412050000
 s    1  1.00
        9.5322000000         1.0000000000
 s    1  1.00
        0.9398000000         1.0000000000
 s    1  1.00
        0.2846000000         1.0000000000
 p    4  1.00
       35.1832000000         0.0195800000
        7.9040000000         0.1241890000
        2.3051000000         0.3947270000
        0.7171000000         0.6273750000
 p    1  1.00
        0.2137000000         1.0000000000

  2 0
 s    3  1.00
       19.2406000000         0.0328280000
        2.8992000000         0.2312080000
        0.6534000000         0.8172380000
 s    1  1.00
        0.1776000000         1.0000000000

[MO]
 Sym= A
 Ene=        -2.0635785904e+01
 Spin= Alpha
 Occup=         1.0000000000e+00
  1         5.8058354995e-01
  2         4.6124354134e-01
  3         1.0895954969e-03
  4         1.2480801765e-03
  5         7.4674987996e-17
  6        -2.1675975429e-16
  7         1.4041659777e-03
  8        -2.2444878615e-16
  9         3.1379978927e-16
 10        -4.7012650028e-04
 11        -5.6124454951e-05
 12         4.9589114833e-05
 Sym= A
 Ene=        -1.3925837627e+00
 Spin= Alpha
 Occup=         1.0000000000e+00
  1         1.3886908080e-01
  2         1.9292544582e-01
  3        -5.6245277343e-01
  4        -4.7557650341e-01
  5         2.9173372960e-16
  6        -2.1017385152e-16
  7        -1.1617964349e-01
  8         6.9721487223e-18
  9         4.6240386295e-17
 10        -3.0428544775e-02
 11        -1.4386697914e-01
 12         1.5057055957e-03
 Sym= A
 Ene=        -6.7350913584e-01
 Spin= Alpha
 Occup=         1.0000000000e+00
  1         4.1991999284e-02
  2         5.8179407244e-02
  3        -1.7188367306e-01
  4        -2.5608428738e-01
  5         9.2088553274e-15
  6         6.7909944026e-16
  7         6.2339174186e-01
  8         4.0340683344e-15
  9         3.7881398358e-16
 10         2.3283839695e-01
 11         2.8055849726e-01
 12         1.2367751718e-01
 Sym= A
 Ene=        -6.4773466881e-01
 Spin= Alpha
 Occup=         1.0000000000e+00
  1        -4.4457132110e-16
  2        -8.7835850756e-16
  3         2.0453688063e-15
  4         3.1173124373e-15
  5         7.8426524731e-01
  6        -3.3168059650e-02
  7        -6.8680219976e-15
  8         3.3843315469e-01
  9        -1.4312977785e-02
 10        -2.8795897860e-15
 11        -3.2377985620e-15
 12        -1.4083081435e-15
 Sym= A
 Ene=        -5.6106525281e-01
 Spin= Alpha
 Occup=         1.0000000000e+00
  1        -2.7681452485e-16
  2         2.9966505706e-16
  3        -6.1749296877e-17
  4         7.6170599678e-16
  5         3.2150072521e-02
  6         7.6019474285e-01
  7        -1.1489346727e-15
  8         1.5613573674e-02
  9         3.6918599846e-01
 10        -3.8881371864e-17
 11        -3.8645342437e-16
 12        -6.0228444584e-16
 Sym= A
 Ene=         2.2368137102e-01
 Spin= Alpha
 Occup=         0.0000000000e+00
  1         3.9186186326e-02
  2         5.3046445425e-02
  3        -1.0125369799e-01
  4        -9.5467608430e-01
  5        -5.6018098362e-17
  6        -2.8545087520e-16
  7        -3.3550928850e-01
  8         1.0559025141e-16
  9         2.9401914286e-16
 10        -6.7991043428e-01
 11         7.5150804054e-02
 12         1.6962865678e+00
 Sym= A
 Ene=         7.8465579942e-01
 Spin= Alpha
 Occup=         0.0000000000e+00
  1         4.4137574022e-18
  2        -1.2756932361e-16
  3         2.9734075861e-16
  4        -3.0670532662e-16
  5         8.5245319327e-01
  6        -3.6051856767e-02
  7        -7.7180878337e-16
  8        -1.1077957504e+00
  9         4.6850776132e-02
 10         1.5996182426e-15
 11        -1.3395385209e-15
 12         6.9776488020e-16
 Sym= A
 Ene=         8.3517109288e-01
 Spin= Alpha
 Occup=         0.0000000000e+00
  1        -2.2562500795e-16
  2         1.6945492169e-16
  3        -8.7141497404e-16
  4         3.8659092202e-15
  5         3.6962540418e-02
  6         8.7398648605e-01
  7        -4.2704274967e-15
  8        -4.6433531789e-02
  9        -1.0979299265e+00
 10         9.1165456420e-15
 11        -3.9388469800e-15
 12        -2.2134600187e-15
 Sym= A
 Ene=         8.8788127903e-01
 Spin= Alpha
 Occup=         0.0000000000e+00
  1         3.1823401816e-02
  2         4.8055476383e-02
  3        -2.0667092837e-01
  4        -2.4016089616e-01
  5         1.3723185097e-15
  6         5.1608874374e-15
  7         7.9537248246e-01
  8        -1.8139824517e-15
  9        -6.5739912671e-15
 10        -1.4550829597e+00
 11         3.0512342322e-01
 12         5.2068602611e-01
 Sym= A
 Ene=         1.1221860600e+00
 Spin= Alpha
 Occup=         0.0000000000e+00
  1         9.7083506079e-03
  2         1.1012528805e-02
  3         2.5419941872e-02
  4        -6.0556567152e-02
  5         1.0825605256e-15
  6         1.1899337002e-15
  7        -4.8836374802e-01
  8        -1.4006116820e-15
  9        -1.8162513910e-15
 10        -7.0401841397e-02
 11         1.3916309251e+00
 12        -9.1172623077e-01
 Sym= A
 Ene=         1.4718659328e+00
 Spin= Alpha
 Occup=         0.0000000000e+00
  1         1.4348858855e-01
  2         2.4824434446e-01
  3        -1.8550096401e+00
  4         2.4649867657e+00
  5         1.1239509436e-16
  6        -1.7596212627e-15
  7        -1.9065492838e-01
  8        -1.2797847392e-16
  9         2.3557489201e-15
 10         8.3865084300e-01
 11        -9.1228263670e-02
 12        -1.1839489913e+00
 Sym= A
 Ene=         4.3203537783e+01
 Spin= Alpha
 Occup=         0.0000000000e+00
  1         1.7312503372e+00
  2        -1.8732360969e+00
  3         3.6663479117e-01
  4        -2.8742151766e-01
  5         1.5982022280e-16
  6         1.6307168789e-16
  7         1.1490592742e-02
  8        -3.7331479112e-16
  9        -2.4128966554e-16
 10        -6.8949558338e-02
 11        -2.4323948510e-03
 12         1.1657736643e-01
 Sym= A
 Ene=        -2.0594556521e+01
 Spin= Beta
 Occup=         1.0000000000e+00
  1         5.8156858470e-01
  2         4.6136488798e-01
  3        -1.8676203838e-03
  4         1.9223890664e-03
  5         2.6778397371e-17
  6         1.1703730348e-16
  7         1.3208122155e-03
  8        -7.9449219638e-17
  9         8.1768940395e-17
 10        -3.7587001259e-04
 11         1.7169567926e-04
 12        -2.9629401658e-04
 Sym= A
 Ene=        -1.2352123612e+00
 Spin= Beta
 Occup=         1.0000000000e+00
  1         1.3108163080e-01
  2         1.8190570008e-01
  3        -5.1915797699e-01
  4        -4.5879166833e-01
  5         1.3995295611e-16
  6         7.7755252626e-17
  7        -1.3306790198e-01
  8         2.7900520532e-17
  9         9.2559204012e-16
 10        -2.1333375833e-02
 11        -1.9384077836e-01
 12        -3.1494399585e-02
 Sym= A
 Ene=        -6.2110918007e-01
 Spin= Beta
 Occup=         1.0000000000e+00
  1         4.9948590545e-02
  2         6.9086397155e-02
  3        -1.9712002874e-01
  4        -3.1349199491e-01
  5         4.8242111864e-16
  6        -1.2970542337e-15
  7         5.7951593640e-01
  8         3.6403157750e-16
  9        -1.0713918102e-15
 10         2.4230470398e-01
 11         2.8850240788e-01
 12         1.4690806551e-01
 Sym= A
 Ene=        -5.0583874399e-01
 Spin= Beta
 Occup=         1.0000000000e+00
  1        -4.7053142916e-17
  2         3.6959507266e-17
  3         1.2440333556e-16
  4        -1.1323472856e-16
  5         3.1117264420e-02
  6         7.3577379363e-01
  7         1.4793529945e-15
  8         1.6889670382e-02
  9         3.9935955431e-01
 10         5.6307376844e-16
 11         1.1510343140e-16
 12         4.3410542189e-16
 Sym= A
 Ene=         1.0799504527e-01
 Spin= Beta
 Occup=         0.0000000000e+00
  1        -5.8333636043e-17
  2        -5.4328037943e-17
  3         2.7769315659e-16
  4         3.7841611523e-16
  5         5.3813550389e-01
  6        -2.2758767590e-02
  7        -2.7597685051e-16
  8         6.1244700820e-01
  9        -2.5901541564e-02
 10         1.6554593598e-16
 11        -1.2693691726e-16
 12        -7.3665634453e-16
 Sym= A
 Ene=         2.3750631730e-01
 Spin= Beta
 Occup=         0.0000000000e+00
  1         4.0452880185e-02
  2         5.4355495474e-02
  3        -9.1207889868e-02
  4        -9.9816679703e-01
  5         6.2586015299e-17
  6        -1.8433057626e-16
  7        -3.4057993070e-01
  8         3.5136904790e-16
  9         2.4178265008e-16
 10        -7.1352345873e-01
 11         5.1638513425e-02
 12         1.7227703850e+00
 Sym= A
 Ene=         8.5808704347e-01
 Spin= Beta
 Occup=         0.0000000000e+00
  1         1.0169815444e-16
  2         3.0058124675e-16
  3        -2.6636313839e-15
  4         4.1405320508e-15
  5         3.7836125757e-02
  6         8.9464258197e-01
  7        -3.7026539099e-15
  8        -4.5984732158e-02
  9        -1.0873179715e+00
 10         4.6171765213e-15
 11         1.3443034660e-15
 12        -4.2389164144e-15
 Sym= A
 Ene=         9.1061769771e-01
 Spin= Beta
 Occup=         0.0000000000e+00
  1         3.2594055880e-02
  2         4.8756004800e-02
  3        -1.9758861545e-01
  4        -2.6334765025e-01
  5        -3.8664172027e-15
  6         2.3586896597e-15
  7         7.8958011241e-01
  8         3.9842920687e-15
  9        -3.2059324632e-15
 10        -1.4513597056e+00
 11         3.7438429855e-01
 12         4.7324458714e-01
 Sym= A
 Ene=         9.7238311060e-01
 Spin= Beta
 Occup=         0.0000000000e+00
  1        -2.0960684250e-17
  2         4.0524696040e-16
  3        -1.1587654400e-15
  4        -8.6681357261e-16
  5         1.0257478269e+00
  6        -4.3380814366e-02
  7         4.9165405216e-15
  8        -9.8318720853e-01
  9         4.1580845372e-02
 10        -6.1757427380e-15
 11        -2.6283849974e-15
 12         5.1257126199e-15
 Sym= A
 Ene=         1.1280154887e+00
 Spin= Beta
 Occup=         0.0000000000e+00
  1         1.0657604362e-02
  2         1.2195967377e-02
  3         2.4689670308e-02
  4        -6.3215266440e-02
  5         3.3561416054e-15
  6        -1.6009248572e-15
  7        -5.4176060880e-01
  8        -3.3533522985e-15
  9         2.1676663223e-15
 10        -1.4780757045e-02
 11         1.3679914767e+00
 12        -9.1993390035e-01
 Sym= A
 Ene=         1.5219564300e+00
 Spin= Beta
 Occup=         0.0000000000e+00
  1         1.4561194545e-01
  2         2.5219491666e-01
  3        -1.8666560167e+00
  4         2.4418107812e+00
  5        -9.3680553679e-17
  6        -2.0313981840e-15
  7        -1.8885476469e-01
  8         3.4630377053e-16
  9         2.8893177380e-15
 10         8.1734068364e-01
 11        -8.9883863794e-02
 12        -1.1558839603e+00
 Sym= A
 Ene=         4.3228969758e+01
 Spin= Beta
 Occup=         0.0000000000e+00
  1         1.7310892369e+00
  2        -1.8733475586e+00
  3         3.6637725892e-01
  4        -2.8701859158e-01
  5         9.1013761174e-17
  6         1.5954389450e-16
  7         1.1473677880e-02
  8        -3.2524055031e-16
  9        -2.2415843780e-16
 10        -6.8835623276e-02
 11        -2.4551712534e-03
 12         1.1641459549e-01
