[Molden Format]
[Atoms] (AU)
O    1    8           0.0000000000         0.0000000000        -0.1086931105
H    2    1           0.0000000000         0.0000000000         1.7250385401
[GTO]
  1 0
 s    6  1.00
     7816.5400000000         0.0020310000
     1175.8200000000         0.0154360000
      273.1880000000         0.0737710000
       81.1696000000         0.2476060000
       27.1836000000         0.6118320000
        3.4136000000         0.2412050000
 s    1  1.00
        9.5322000000         1.0000000000
 s    1  1.00
        0.9398000000         1.0000000000
 s    1  1.00
        0.2846000000         1.0000000000
 p    4  1.00
       35.1832000000         0.0195800000
        7.9040000000         0.1241890000
        2.3051000000         0.3947270000
        0.7171000000         0.6273750000
 p    1  1.00
        0.2137000000         1.0000000000

  2 0
 s    3  1.00
       19.2406000000         0.0328280000
        2.8992000000         0.2312080000
        0.6534000000         0.8172380000
 s    1  1.00
        0.1776000000         1.0000000000

[MO]
 Sym= A1
 Ene=        -2.0615711020e+01
 Spin= Alpha
 Occup=         1.0000000000e+00
  1         5.8108007034e-01
  2         4.6130593788e-01
  3        -4.0285161801e-04
  4         1.5895951798e-03
  5         0.0000000000e+00
  6         0.0000000000e+00
  7         1.3597709825e-03
  8         0.0000000000e+00
  9         0.0000000000e+00
 10        -4.2119687983e-04
 11         5.9582239053e-05
 12        -1.2579770279e-04
 Sym= A1
 Ene=        -1.3129582330e+00
 Spin= Alpha
 Occup=         1.0000000000e+00
  1         1.3525380006e-01
  2         1.8780862267e-01
  3        -5.4205691072e-01
  4        -4.6908097442e-01
  5         0.0000000000e+00
  6         0.0000000000e+00
  7        -1.2380402707e-01
  8         0.0000000000e+00
  9         0.0000000000e+00
 10        -2.5936829012e-02
 11        -1.6737870341e-01
 12        -1.3319858391e-02
 Sym= A1
 Ene=        -6.4773367949e-01
 Spin= Alpha
 Occup=         1.0000000000e+00
  1         4.5709588681e-02
  2         6.3281069053e-02
  3        -1.8386349129e-01
  4        -2.8331906860e-01
  5         0.0000000000e+00
  6         0.0000000000e+00
  7         6.0205286322e-01
  8         0.0000000000e+00
  9         0.0000000000e+00
 10         2.3713509994e-01
 11         2.8586023380e-01
 12         1.3586403864e-01
 Sym= B2
 Ene=        -5.3355335682e-01
 Spin= Alpha
 Occup=         1.0000000000e+00
  1         0.0000000000e+00
  2         0.0000000000e+00
  3         0.0000000000e+00
  4         0.0000000000e+00
  5         0.0000000000e+00
  6         7.4911743367e-01
  7         0.0000000000e+00
  8         0.0000000000e+00
  9         3.8416701978e-01
 10         0.0000000000e+00
 11         0.0000000000e+00
 12         0.0000000000e+00
 Sym= B1
 Ene=        -2.4153419474e-01
 Spin= Alpha
 Occup=         1.0000000000e+00
  1         0.0000000000e+00
  2         0.0000000000e+00
  3         0.0000000000e+00
  4         0.0000000000e+00
  5         7.8207939297e-01
  6         0.0000000000e+00
  7         0.0000000000e+00
  8         3.4247957869e-01
  9         0.0000000000e+00
 10         0.0000000000e+00
 11         0.0000000000e+00
 12         0.0000000000e+00
 Sym= A1
 Ene=         2.3015507282e-01
 Spin= Alpha
 Occup=         0.0000000000e+00
  1         3.9759601598e-02
  2         5.3620872680e-02
  3        -9.6090127026e-02
  4        -9.7602201161e-01
  5         0.0000000000e+00
  6         0.0000000000e+00
  7        -3.3858039172e-01
  8         0.0000000000e+00
  9         0.0000000000e+00
 10        -6.9675642992e-01
 11         6.4268961589e-02
 12         1.7092603792e+00
 Sym= B2
 Ene=         8.4628141668e-01
 Spin= Alpha
 Occup=         0.0000000000e+00
  1         0.0000000000e+00
  2         0.0000000000e+00
  3         0.0000000000e+00
  4         0.0000000000e+00
  5         0.0000000000e+00
  6         8.8485668443e-01
  7         0.0000000000e+00
  8         0.0000000000e+00
  9        -1.0938756704e+00
 10         0.0000000000e+00
 11         0.0000000000e+00
 12         0.0000000000e+00
 Sym= B1
 Ene=         8.5081835378e-01
 Spin= Alpha
 Occup=         0.0000000000e+00
  1         0.0000000000e+00
  2         0.0000000000e+00
  3         0.0000000000e+00
  4         0.0000000000e+00
  5         8.5586219949e-01
  6         0.0000000000e+00
  7         0.0000000000e+00
  8        -1.1076353279e+00
  9         0.0000000000e+00
 10         0.0000000000e+00
 11         0.0000000000e+00
 12         0.0000000000e+00
 Sym= A1
 Ene=         8.9902512608e-01
 Spin= Alpha
 Occup=         0.0000000000e+00
  1         3.2158980957e-02
  2         4.8347140670e-02
  3        -2.0222372270e-01
  4        -2.5104621841e-01
  5         0.0000000000e+00
  6         0.0000000000e+00
  7         7.9345921060e-01
  8         0.0000000000e+00
  9         0.0000000000e+00
 10        -1.4535110823e+00
 11         3.3800111409e-01
 12         4.9802388917e-01
 Sym= A1
 Ene=         1.1245706617e+00
 Spin= Alpha
 Occup=         0.0000000000e+00
  1         1.0250343703e-02
  2         1.1723871055e-02
  3         2.4129658248e-02
  4        -6.0682385129e-02
  5         0.0000000000e+00
  6         0.0000000000e+00
  7        -5.1396241214e-01
  8         0.0000000000e+00
  9         0.0000000000e+00
 10        -4.3735552478e-02
 11         1.3808316472e+00
 12        -9.1673330009e-01
 Sym= A1
 Ene=         1.4965940044e+00
 Spin= Alpha
 Occup=         0.0000000000e+00
  1         1.4450751861e-01
  2         2.5015284321e-01
  3        -1.8607308177e+00
  4         2.4538017641e+00
  5         0.0000000000e+00
  6         0.0000000000e+00
  7        -1.8968647428e-01
  8         0.0000000000e+00
  9         0.0000000000e+00
 10         8.2825183400e-01
 11        -9.1186089392e-02
 12        -1.1696853396e+00
 Sym= A1
 Ene=         4.3215695005e+01
 Spin= Alpha
 Occup=         0.0000000000e+00
  1         1.7311686596e+00
  2        -1.8732932648e+00
  3         3.6651152266e-01
  4        -2.8722394011e-01
  5         0.0000000000e+00
  6         0.0000000000e+00
  7         1.1482292284e-02
  8         0.0000000000e+00
  9         0.0000000000e+00
 10        -6.8893482892e-02
 11        -2.4437484104e-03
 12         1.1649731917e-01
 Sym= A1
 Ene=        -2.0615711020e+01
 Spin= Beta
 Occup=         1.0000000000e+00
  1         5.8108007034e-01
  2         4.6130593788e-01
  3        -4.0285161801e-04
  4         1.5895951798e-03
  5         0.0000000000e+00
  6         0.0000000000e+00
  7         1.3597709825e-03
  8         0.0000000000e+00
  9         0.0000000000e+00
 10        -4.2119687983e-04
 11         5.9582239053e-05
 12        -1.2579770279e-04
 Sym= A1
 Ene=        -1.3129582330e+00
 Spin= Beta
 Occup=         1.0000000000e+00
  1         1.3525380006e-01
  2         1.8780862267e-01
  3        -5.4205691072e-01
  4        -4.6908097442e-01
  5         0.0000000000e+00
  6         0.0000000000e+00
  7        -1.2380402707e-01
  8         0.0000000000e+00
  9         0.0000000000e+00
 10        -2.5936829012e-02
 11        -1.6737870341e-01
 12        -1.3319858391e-02
 Sym= A1
 Ene=        -6.4773367949e-01
 Spin= Beta
 Occup=         1.0000000000e+00
  1         4.5709588681e-02
  2         6.3281069053e-02
  3        -1.8386349129e-01
  4        -2.8331906860e-01
  5         0.0000000000e+00
  6         0.0000000000e+00
  7         6.0205286322e-01
  8         0.0000000000e+00
  9         0.0000000000e+00
 10         2.3713509994e-01
 11         2.8586023380e-01
 12         1.3586403864e-01
 Sym= B2
 Ene=        -5.3355335682e-01
 Spin= Beta
 Occup=         1.0000000000e+00
  1         0.0000000000e+00
  2         0.0000000000e+00
  3         0.0000000000e+00
  4         0.0000000000e+00
  5         0.0000000000e+00
  6         7.4911743367e-01
  7         0.0000000000e+00
  8         0.0000000000e+00
  9         3.8416701978e-01
 10         0.0000000000e+00
 11         0.0000000000e+00
 12         0.0000000000e+00
 Sym= B1
 Ene=        -2.4153419474e-01
 Spin= Beta
 Occup=         0.0000000000e+00
  1         0.0000000000e+00
  2         0.0000000000e+00
  3         0.0000000000e+00
  4         0.0000000000e+00
  5         7.8207939297e-01
  6         0.0000000000e+00
  7         0.0000000000e+00
  8         3.4247957869e-01
  9         0.0000000000e+00
 10         0.0000000000e+00
 11         0.0000000000e+00
 12         0.0000000000e+00
 Sym= A1
 Ene=         2.3015507282e-01
 Spin= Beta
 Occup=         0.0000000000e+00
  1         3.9759601598e-02
  2         5.3620872680e-02
  3        -9.6090127026e-02
  4        -9.7602201161e-01
  5         0.0000000000e+00
  6         0.0000000000e+00
  7        -3.3858039172e-01
  8         0.0000000000e+00
  9         0.0000000000e+00
 10        -6.9675642992e-01
 11         6.4268961589e-02
 12         1.7092603792e+00
 Sym= B2
 Ene=         8.4628141668e-01
 Spin= Beta
 Occup=         0.0000000000e+00
  1         0.0000000000e+00
  2         0.0000000000e+00
  3         0.0000000000e+00
  4         0.0000000000e+00
  5         0.0000000000e+00
  6         8.8485668443e-01
  7         0.0000000000e+00
  8         0.0000000000e+00
  9        -1.0938756704e+00
 10         0.0000000000e+00
 11         0.0000000000e+00
 12         0.0000000000e+00
 Sym= B1
 Ene=         8.5081835378e-01
 Spin= Beta
 Occup=         0.0000000000e+00
  1         0.0000000000e+00
  2         0.0000000000e+00
  3         0.0000000000e+00
  4         0.0000000000e+00
  5         8.5586219949e-01
  6         0.0000000000e+00
  7         0.0000000000e+00
  8        -1.1076353279e+00
  9         0.0000000000e+00
 10         0.0000000000e+00
 11         0.0000000000e+00
 12         0.0000000000e+00
 Sym= A1
 Ene=         8.9902512608e-01
 Spin= Beta
 Occup=         0.0000000000e+00
  1         3.2158980957e-02
  2         4.8347140670e-02
  3        -2.0222372270e-01
  4        -2.5104621841e-01
  5         0.0000000000e+00
  6         0.0000000000e+00
  7         7.9345921060e-01
  8         0.0000000000e+00
  9         0.0000000000e+00
 10        -1.4535110823e+00
 11         3.3800111409e-01
 12         4.9802388917e-01
 Sym= A1
 Ene=         1.1245706617e+00
 Spin= Beta
 Occup=         0.0000000000e+00
  1         1.0250343703e-02
  2         1.1723871055e-02
  3         2.4129658248e-02
  4        -6.0682385129e-02
  5         0.0000000000e+00
  6         0.0000000000e+00
  7        -5.1396241214e-01
  8         0.0000000000e+00
  9         0.0000000000e+00
 10        -4.3735552478e-02
 11         1.3808316472e+00
 12        -9.1673330009e-01
 Sym= A1
 Ene=         1.4965940044e+00
 Spin= Beta
 Occup=         0.0000000000e+00
  1         1.4450751861e-01
  2         2.5015284321e-01
  3        -1.8607308177e+00
  4         2.4538017641e+00
  5         0.0000000000e+00
  6         0.0000000000e+00
  7        -1.8968647428e-01
  8         0.0000000000e+00
  9         0.0000000000e+00
 10         8.2825183400e-01
 11        -9.1186089392e-02
 12        -1.1696853396e+00
 Sym= A1
 Ene=         4.3215695005e+01
 Spin= Beta
 Occup=         0.0000000000e+00
  1         1.7311686596e+00
  2        -1.8732932648e+00
  3         3.6651152266e-01
  4        -2.8722394011e-01
  5         0.0000000000e+00
  6         0.0000000000e+00
  7         1.1482292284e-02
  8         0.0000000000e+00
  9         0.0000000000e+00
 10        -6.8893482892e-02
 11        -2.4437484104e-03
 12         1.1649731917e-01
