[Molden Format]
[Atoms] (AU)
O    1    8           0.0000000000         0.0000000000        -0.1086931105
H    2    1           0.0000000000         0.0000000000         1.7250385401
[GTO]
  1 0
 s    6  1.00
     7816.5400000000         0.0020310000
     1175.8200000000         0.0154360000
      273.1880000000         0.0737710000
       81.1696000000         0.2476060000
       27.1836000000         0.6118320000
        3.4136000000         0.2412050000
 s    1  1.00
        9.5322000000         1.0000000000
 s    1  1.00
        0.9398000000         1.0000000000
 s    1  1.00
        0.2846000000         1.0000000000
 p    4  1.00
       35.1832000000         0.0195800000
        7.9040000000         0.1241890000
        2.3051000000         0.3947270000
        0.7171000000         0.6273750000
 p    1  1.00
        0.2137000000         1.0000000000

  2 0
 s    3  1.00
       19.2406000000         0.0328280000
        2.8992000000         0.2312080000
        0.6534000000         0.8172380000
 s    1  1.00
        0.1776000000         1.0000000000

[MO]
 Sym= A
 Ene=        -2.0615710980e+01
 Spin= Alpha
 Occup=         1.0000000000e+00
  1         5.8108007017e-01
  2         4.6130593754e-01
  3        -4.0285047827e-04
  4         1.5895954751e-03
  5         1.3812798095e-16
  6        -4.0166733388e-16
  7         1.3597699375e-03
  8        -3.9123350804e-17
  9         2.4666142438e-17
 10        -4.2119669714e-04
 11         5.9581739951e-05
 12        -1.2579788032e-04
 Sym= A
 Ene=        -1.3129580895e+00
 Spin= Alpha
 Occup=         1.0000000000e+00
  1         1.3525378385e-01
  2         1.8780859884e-01
  3        -5.4205679861e-01
  4        -4.6908097029e-01
  5         6.2697350788e-17
  6         2.1596503999e-16
  7        -1.2380410577e-01
  8        -2.4576588460e-16
  9         1.1954914194e-15
 10        -2.5936867432e-02
 11        -1.6737877965e-01
 12        -1.3319906213e-02
 Sym= A
 Ene=        -6.4773340690e-01
 Spin= Alpha
 Occup=         1.0000000000e+00
  1         4.5709571186e-02
  2         6.3281039784e-02
  3        -1.8386326495e-01
  4        -2.8331901343e-01
  5         7.8967927915e-16
  6         9.0921087124e-16
  7         6.0205288680e-01
  8        -3.4955523684e-17
  9         1.2158152068e-16
 10         2.3713552794e-01
 11         2.8586012948e-01
 12         1.3586336079e-01
 Sym= A
 Ene=        -5.3355337205e-01
 Spin= Alpha
 Occup=         1.0000000000e+00
  1        -3.0030896187e-16
  2        -2.4454268234e-17
  3         1.2916997557e-15
  4        -1.4649097498e-17
  5         6.3348997999e-01
  6         3.9983433071e-01
  7        -2.9880543959e-16
  8         3.2487012044e-01
  9         2.0504543288e-01
 10        -4.0659129239e-16
 11        -7.2585387387e-16
 12         2.9896808038e-16
 Sym= A
 Ene=        -2.4153414471e-01
 Spin= Alpha
 Occup=         1.0000000000e+00
  1         1.8280878601e-17
  2         2.3450485507e-16
  3        -1.3806463869e-15
  4        -3.0203895938e-17
  5         4.1742743075e-01
  6        -6.6136415621e-01
  7        -1.2946616556e-16
  8         1.8279519697e-01
  9        -2.8961726589e-01
 10        -3.8331621121e-16
 11         6.2076970065e-16
 12         6.6362400831e-17
 Sym= A
 Ene=         2.3015489411e-01
 Spin= Alpha
 Occup=         0.0000000000e+00
  1         3.9759622783e-02
  2         5.3620900263e-02
  3        -9.6090175629e-02
  4        -9.7602216948e-01
  5        -1.3726192785e-16
  6         4.8807440659e-16
  7        -3.3858028432e-01
  8        -1.2183249424e-16
  9        -2.9224046478e-17
 10        -6.9675614545e-01
 11         6.4269159783e-02
 12         1.7092603059e+00
 Sym= A
 Ene=         8.4628140748e-01
 Spin= Alpha
 Occup=         0.0000000000e+00
  1         3.8254704287e-16
  2        -5.1383324866e-16
  3         1.4737928160e-15
  4        -9.7742888543e-16
  5         7.4827752969e-01
  6         4.7228378462e-01
  7        -3.5575994432e-15
  8        -9.2503417290e-01
  9        -5.8384572935e-01
 10         3.0880148824e-15
 11         3.4458967452e-15
 12        -3.8645351146e-15
 Sym= A
 Ene=         8.5081838983e-01
 Spin= Alpha
 Occup=         0.0000000000e+00
  1        -3.4132793880e-16
  2        -7.4613333638e-16
  3         1.3548547327e-15
  4         3.7298760388e-15
  5         4.5680828067e-01
  6        -7.2375843282e-01
  7        -5.9103954715e-15
  8        -5.9118980133e-01
  9         9.3666998217e-01
 10         1.5431705662e-14
 11        -9.5583176672e-15
 12        -8.5318982337e-16
 Sym= A
 Ene=         8.9902530436e-01
 Spin= Alpha
 Occup=         0.0000000000e+00
  1         3.2158971443e-02
  2         4.8347118395e-02
  3        -2.0222345368e-01
  4        -2.5104681484e-01
  5         6.4359622218e-15
  6        -6.5709396293e-15
  7         7.9345923657e-01
  8        -8.4895007487e-15
  9         8.5282903510e-15
 10        -1.4535112817e+00
 11         3.3800133875e-01
 12         4.9802423711e-01
 Sym= A
 Ene=         1.1245703705e+00
 Spin= Alpha
 Occup=         0.0000000000e+00
  1         1.0250363923e-02
  2         1.1723908006e-02
  3         2.4129355415e-02
  4        -6.0681849277e-02
  5        -3.9886884878e-16
  6        -4.6825252128e-15
  7        -5.1396250428e-01
  8         2.4578762203e-16
  9         6.7196261155e-15
 10        -4.3735182416e-02
 11         1.3808315853e+00
 12        -9.1673371462e-01
 Sym= A
 Ene=         1.4965940637e+00
 Spin= Alpha
 Occup=         0.0000000000e+00
  1         1.4450753373e-01
  2         2.5015286695e-01
  3        -1.8607309035e+00
  4         2.4538016608e+00
  5         6.4004550416e-16
  6         1.0378534924e-15
  7        -1.8968618149e-01
  8        -9.5456878484e-16
  9        -1.4179567075e-15
 10         8.2825161906e-01
 11        -9.1186240928e-02
 12        -1.1696850520e+00
 Sym= A
 Ene=         4.3215695059e+01
 Spin= Alpha
 Occup=         0.0000000000e+00
  1         1.7311686597e+00
  2        -1.8732932646e+00
  3         3.6651152169e-01
  4        -2.8722393923e-01
  5         2.9744452655e-17
  6         2.1247300302e-16
  7         1.1482292405e-02
  8         1.0546582305e-16
  9         9.2512757367e-17
 10        -6.8893482354e-02
 11        -2.4437481812e-03
 12         1.1649731852e-01
 Sym= A
 Ene=        -2.0615710980e+01
 Spin= Beta
 Occup=         1.0000000000e+00
  1         5.8108007017e-01
  2         4.6130593754e-01
  3        -4.0285047827e-04
  4         1.5895954751e-03
  5         1.3812798095e-16
  6        -4.0166733388e-16
  7         1.3597699375e-03
  8        -3.9123350804e-17
  9         2.4666142438e-17
 10        -4.2119669714e-04
 11         5.9581739951e-05
 12        -1.2579788032e-04
 Sym= A
 Ene=        -1.3129580895e+00
 Spin= Beta
 Occup=         1.0000000000e+00
  1         1.3525378385e-01
  2         1.8780859884e-01
  3        -5.4205679861e-01
  4        -4.6908097029e-01
  5         6.2697350788e-17
  6         2.1596503999e-16
  7        -1.2380410577e-01
  8        -2.4576588460e-16
  9         1.1954914194e-15
 10        -2.5936867432e-02
 11        -1.6737877965e-01
 12        -1.3319906213e-02
 Sym= A
 Ene=        -6.4773340690e-01
 Spin= Beta
 Occup=         1.0000000000e+00
  1         4.5709571186e-02
  2         6.3281039784e-02
  3        -1.8386326495e-01
  4        -2.8331901343e-01
  5         7.8967927915e-16
  6         9.0921087124e-16
  7         6.0205288680e-01
  8        -3.4955523684e-17
  9         1.2158152068e-16
 10         2.3713552794e-01
 11         2.8586012948e-01
 12         1.3586336079e-01
 Sym= A
 Ene=        -5.3355337205e-01
 Spin= Beta
 Occup=         1.0000000000e+00
  1        -3.0030896187e-16
  2        -2.4454268234e-17
  3         1.2916997557e-15
  4        -1.4649097498e-17
  5         6.3348997999e-01
  6         3.9983433071e-01
  7        -2.9880543959e-16
  8         3.2487012044e-01
  9         2.0504543288e-01
 10        -4.0659129239e-16
 11        -7.2585387387e-16
 12         2.9896808038e-16
 Sym= A
 Ene=        -2.4153414471e-01
 Spin= Beta
 Occup=         0.0000000000e+00
  1         1.8280878601e-17
  2         2.3450485507e-16
  3        -1.3806463869e-15
  4        -3.0203895938e-17
  5         4.1742743075e-01
  6        -6.6136415621e-01
  7        -1.2946616556e-16
  8         1.8279519697e-01
  9        -2.8961726589e-01
 10        -3.8331621121e-16
 11         6.2076970065e-16
 12         6.6362400831e-17
 Sym= A
 Ene=         2.3015489411e-01
 Spin= Beta
 Occup=         0.0000000000e+00
  1         3.9759622783e-02
  2         5.3620900263e-02
  3        -9.6090175629e-02
  4        -9.7602216948e-01
  5        -1.3726192785e-16
  6         4.8807440659e-16
  7        -3.3858028432e-01
  8        -1.2183249424e-16
  9        -2.9224046478e-17
 10        -6.9675614545e-01
 11         6.4269159783e-02
 12         1.7092603059e+00
 Sym= A
 Ene=         8.4628140748e-01
 Spin= Beta
 Occup=         0.0000000000e+00
  1         3.8254704287e-16
  2        -5.1383324866e-16
  3         1.4737928160e-15
  4        -9.7742888543e-16
  5         7.4827752969e-01
  6         4.7228378462e-01
  7        -3.5575994432e-15
  8        -9.2503417290e-01
  9        -5.8384572935e-01
 10         3.0880148824e-15
 11         3.4458967452e-15
 12        -3.8645351146e-15
 Sym= A
 Ene=         8.5081838983e-01
 Spin= Beta
 Occup=         0.0000000000e+00
  1        -3.4132793880e-16
  2        -7.4613333638e-16
  3         1.3548547327e-15
  4         3.7298760388e-15
  5         4.5680828067e-01
  6        -7.2375843282e-01
  7        -5.9103954715e-15
  8        -5.9118980133e-01
  9         9.3666998217e-01
 10         1.5431705662e-14
 11        -9.5583176672e-15
 12        -8.5318982337e-16
 Sym= A
 Ene=         8.9902530436e-01
 Spin= Beta
 Occup=         0.0000000000e+00
  1         3.2158971443e-02
  2         4.8347118395e-02
  3        -2.0222345368e-01
  4        -2.5104681484e-01
  5         6.4359622218e-15
  6        -6.5709396293e-15
  7         7.9345923657e-01
  8        -8.4895007487e-15
  9         8.5282903510e-15
 10        -1.4535112817e+00
 11         3.3800133875e-01
 12         4.9802423711e-01
 Sym= A
 Ene=         1.1245703705e+00
 Spin= Beta
 Occup=         0.0000000000e+00
  1         1.0250363923e-02
  2         1.1723908006e-02
  3         2.4129355415e-02
  4        -6.0681849277e-02
  5        -3.9886884878e-16
  6        -4.6825252128e-15
  7        -5.1396250428e-01
  8         2.4578762203e-16
  9         6.7196261155e-15
 10        -4.3735182416e-02
 11         1.3808315853e+00
 12        -9.1673371462e-01
 Sym= A
 Ene=         1.4965940637e+00
 Spin= Beta
 Occup=         0.0000000000e+00
  1         1.4450753373e-01
  2         2.5015286695e-01
  3        -1.8607309035e+00
  4         2.4538016608e+00
  5         6.4004550416e-16
  6         1.0378534924e-15
  7        -1.8968618149e-01
  8        -9.5456878484e-16
  9        -1.4179567075e-15
 10         8.2825161906e-01
 11        -9.1186240928e-02
 12        -1.1696850520e+00
 Sym= A
 Ene=         4.3215695059e+01
 Spin= Beta
 Occup=         0.0000000000e+00
  1         1.7311686597e+00
  2        -1.8732932646e+00
  3         3.6651152169e-01
  4        -2.8722393923e-01
  5         2.9744452655e-17
  6         2.1247300302e-16
  7         1.1482292405e-02
  8         1.0546582305e-16
  9         9.2512757367e-17
 10        -6.8893482354e-02
 11        -2.4437481812e-03
 12         1.1649731852e-01
