[Molden Format]
[Atoms] (AU)
O    1    8           0.0000000000         0.0000000000        -0.1086931105
H    2    1           0.0000000000         0.0000000000         1.7250385401
[GTO]
  1 0
 s    6  1.00
     7816.5400000000         0.0020310000
     1175.8200000000         0.0154360000
      273.1880000000         0.0737710000
       81.1696000000         0.2476060000
       27.1836000000         0.6118320000
        3.4136000000         0.2412050000
 s    1  1.00
        9.5322000000         1.0000000000
 s    1  1.00
        0.9398000000         1.0000000000
 s    1  1.00
        0.2846000000         1.0000000000
 p    4  1.00
       35.1832000000         0.0195800000
        7.9040000000         0.1241890000
        2.3051000000         0.3947270000
        0.7171000000         0.6273750000
 p    1  1.00
        0.2137000000         1.0000000000

  2 0
 s    3  1.00
       19.2406000000         0.0328280000
        2.8992000000         0.2312080000
        0.6534000000         0.8172380000
 s    1  1.00
        0.1776000000         1.0000000000

[MO]
 Sym= A1
 Ene=        -2.0635785811e+01
 Spin= Alpha
 Occup=         1.0000000000e+00
  1         5.8058355073e-01
  2         4.6124354140e-01
  3         1.0895933039e-03
  4         1.2480807951e-03
  5         0.0000000000e+00
  6         0.0000000000e+00
  7         1.4041668951e-03
  8         0.0000000000e+00
  9         0.0000000000e+00
 10        -4.7012559882e-04
 11        -5.6124862465e-05
 12         4.9588594627e-05
 Sym= A1
 Ene=        -1.3925838658e+00
 Spin= Alpha
 Occup=         1.0000000000e+00
  1         1.3886909270e-01
  2         1.9292546210e-01
  3        -5.6245285794e-01
  4        -4.7557649147e-01
  5         0.0000000000e+00
  6         0.0000000000e+00
  7        -1.1617963684e-01
  8         0.0000000000e+00
  9         0.0000000000e+00
 10        -3.0428440687e-02
 11        -1.4386690569e-01
 12         1.5057099421e-03
 Sym= A1
 Ene=        -6.7350891493e-01
 Spin= Alpha
 Occup=         1.0000000000e+00
  1         4.1992024616e-02
  2         5.8179443767e-02
  3        -1.7188377750e-01
  4        -2.5608498525e-01
  5         0.0000000000e+00
  6         0.0000000000e+00
  7         6.2339094000e-01
  8         0.0000000000e+00
  9         0.0000000000e+00
 10         2.3283823492e-01
 11         2.8055889891e-01
 12         1.2367881234e-01
 Sym= B1
 Ene=        -6.4773442633e-01
 Spin= Alpha
 Occup=         1.0000000000e+00
  1         0.0000000000e+00
  2         0.0000000000e+00
  3         0.0000000000e+00
  4         0.0000000000e+00
  5         7.8496612696e-01
  6         0.0000000000e+00
  7         0.0000000000e+00
  8         3.3873591091e-01
  9         0.0000000000e+00
 10         0.0000000000e+00
 11         0.0000000000e+00
 12         0.0000000000e+00
 Sym= B2
 Ene=        -5.6106557567e-01
 Spin= Alpha
 Occup=         1.0000000000e+00
  1         0.0000000000e+00
  2         0.0000000000e+00
  3         0.0000000000e+00
  4         0.0000000000e+00
  5         0.0000000000e+00
  6         7.6087473746e-01
  7         0.0000000000e+00
  8         0.0000000000e+00
  9         3.6951544357e-01
 10         0.0000000000e+00
 11         0.0000000000e+00
 12         0.0000000000e+00
 Sym= A1
 Ene=         2.2368145964e-01
 Spin= Alpha
 Occup=         0.0000000000e+00
  1         3.9186138093e-02
  2         5.3046377633e-02
  3        -1.0125350918e-01
  4        -9.5467588137e-01
  5         0.0000000000e+00
  6         0.0000000000e+00
  7        -3.3550963088e-01
  8         0.0000000000e+00
  9         0.0000000000e+00
 10        -6.7991110259e-01
 11         7.5150294653e-02
 12         1.6962867982e+00
 Sym= B1
 Ene=         7.8465593443e-01
 Spin= Alpha
 Occup=         0.0000000000e+00
  1         0.0000000000e+00
  2         0.0000000000e+00
  3         0.0000000000e+00
  4         0.0000000000e+00
  5         8.5321536609e-01
  6         0.0000000000e+00
  7         0.0000000000e+00
  8        -1.1087859415e+00
  9         0.0000000000e+00
 10         0.0000000000e+00
 11         0.0000000000e+00
 12         0.0000000000e+00
 Sym= B2
 Ene=         8.3517087836e-01
 Spin= Alpha
 Occup=         0.0000000000e+00
  1         0.0000000000e+00
  2         0.0000000000e+00
  3         0.0000000000e+00
  4         0.0000000000e+00
  5         0.0000000000e+00
  6         8.7476734925e-01
  7         0.0000000000e+00
  8         0.0000000000e+00
  9        -1.0989115608e+00
 10         0.0000000000e+00
 11         0.0000000000e+00
 12         0.0000000000e+00
 Sym= A1
 Ene=         8.8788152177e-01
 Spin= Alpha
 Occup=         0.0000000000e+00
  1         3.1823428210e-02
  2         4.8055515103e-02
  3        -2.0667106655e-01
  4        -2.4016066632e-01
  5         0.0000000000e+00
  6         0.0000000000e+00
  7         7.9537238545e-01
  8         0.0000000000e+00
  9         0.0000000000e+00
 10        -1.4550826984e+00
 11         3.0512463868e-01
 12         5.2068477598e-01
 Sym= A1
 Ene=         1.1221864825e+00
 Spin= Alpha
 Occup=         0.0000000000e+00
  1         9.7083238443e-03
  2         1.1012489672e-02
  3         2.5420060450e-02
  4        -6.0556345847e-02
  5         0.0000000000e+00
  6         0.0000000000e+00
  7        -4.8836466880e-01
  8         0.0000000000e+00
  9         0.0000000000e+00
 10        -7.0400810212e-02
 11         1.3916306056e+00
 12        -9.1172639847e-01
 Sym= A1
 Ene=         1.4718659837e+00
 Spin= Alpha
 Occup=         0.0000000000e+00
  1         1.4348857906e-01
  2         2.4824432934e-01
  3        -1.8550095979e+00
  4         2.4649868018e+00
  5         0.0000000000e+00
  6         0.0000000000e+00
  7        -1.9065499784e-01
  8         0.0000000000e+00
  9         0.0000000000e+00
 10         8.3865088987e-01
 11        -9.1228372619e-02
 12        -1.1839489465e+00
 Sym= A1
 Ene=         4.3203537857e+01
 Spin= Alpha
 Occup=         0.0000000000e+00
  1         1.7312503369e+00
  2        -1.8732360972e+00
  3         3.6663479231e-01
  4        -2.8742151834e-01
  5         0.0000000000e+00
  6         0.0000000000e+00
  7         1.1490593413e-02
  8         0.0000000000e+00
  9         0.0000000000e+00
 10        -6.8949558862e-02
 11        -2.4323950008e-03
 12         1.1657736677e-01
 Sym= A1
 Ene=        -2.0594556464e+01
 Spin= Beta
 Occup=         1.0000000000e+00
  1         5.8156858528e-01
  2         4.6136488767e-01
  3        -1.8676214703e-03
  4         1.9223897824e-03
  5         0.0000000000e+00
  6         0.0000000000e+00
  7         1.3208118747e-03
  8         0.0000000000e+00
  9         0.0000000000e+00
 10        -3.7587028944e-04
 11         1.7169803978e-04
 12        -2.9629471725e-04
 Sym= A1
 Ene=        -1.2352126293e+00
 Spin= Beta
 Occup=         1.0000000000e+00
  1         1.3108161442e-01
  2         1.8190567659e-01
  3        -5.1915789941e-01
  4        -4.5879164022e-01
  5         0.0000000000e+00
  6         0.0000000000e+00
  7        -1.3306805442e-01
  8         0.0000000000e+00
  9         0.0000000000e+00
 10        -2.1333458989e-02
 11        -1.9384103790e-01
 12        -3.1494235792e-02
 Sym= A1
 Ene=        -6.2111021410e-01
 Spin= Beta
 Occup=         1.0000000000e+00
  1         4.9948648995e-02
  2         6.9086480396e-02
  3        -1.9712040344e-01
  4        -3.1349182476e-01
  5         0.0000000000e+00
  6         0.0000000000e+00
  7         5.7951614491e-01
  8         0.0000000000e+00
  9         0.0000000000e+00
 10         2.4230446101e-01
 11         2.8850250292e-01
 12         1.4690776094e-01
 Sym= B2
 Ene=        -5.0583859759e-01
 Spin= Beta
 Occup=         1.0000000000e+00
  1         0.0000000000e+00
  2         0.0000000000e+00
  3         0.0000000000e+00
  4         0.0000000000e+00
  5         0.0000000000e+00
  6         7.3643136483e-01
  7         0.0000000000e+00
  8         0.0000000000e+00
  9         3.9971671149e-01
 10         0.0000000000e+00
 11         0.0000000000e+00
 12         0.0000000000e+00
 Sym= B1
 Ene=         1.0799511706e-01
 Spin= Beta
 Occup=         0.0000000000e+00
  1         0.0000000000e+00
  2         0.0000000000e+00
  3         0.0000000000e+00
  4         0.0000000000e+00
  5         5.3861654419e-01
  6         0.0000000000e+00
  7         0.0000000000e+00
  8         6.1299447641e-01
  9         0.0000000000e+00
 10         0.0000000000e+00
 11         0.0000000000e+00
 12         0.0000000000e+00
 Sym= A1
 Ene=         2.3750674535e-01
 Spin= Beta
 Occup=         0.0000000000e+00
  1         4.0452869626e-02
  2         5.4355480097e-02
  3        -9.1207819292e-02
  4        -9.9816695035e-01
  5         0.0000000000e+00
  6         0.0000000000e+00
  7        -3.4057945326e-01
  8         0.0000000000e+00
  9         0.0000000000e+00
 10        -7.1352358769e-01
 11         5.1637878938e-02
 12         1.7227710125e+00
 Sym= B2
 Ene=         8.5808721232e-01
 Spin= Beta
 Occup=         0.0000000000e+00
  1         0.0000000000e+00
  2         0.0000000000e+00
  3         0.0000000000e+00
  4         0.0000000000e+00
  5         0.0000000000e+00
  6         8.9544241932e-01
  7         0.0000000000e+00
  8         0.0000000000e+00
  9        -1.0882898658e+00
 10         0.0000000000e+00
 11         0.0000000000e+00
 12         0.0000000000e+00
 Sym= A1
 Ene=         9.1061763431e-01
 Spin= Beta
 Occup=         0.0000000000e+00
  1         3.2594063359e-02
  2         4.8756017511e-02
  3        -1.9758876311e-01
  4        -2.6334723102e-01
  5         0.0000000000e+00
  6         0.0000000000e+00
  7         7.8957968896e-01
  8         0.0000000000e+00
  9         0.0000000000e+00
 10        -1.4513596270e+00
 11         3.7438484326e-01
 12         4.7324381647e-01
 Sym= B1
 Ene=         9.7238317117e-01
 Spin= Beta
 Occup=         0.0000000000e+00
  1         0.0000000000e+00
  2         0.0000000000e+00
  3         0.0000000000e+00
  4         0.0000000000e+00
  5         1.0266647455e+00
  6         0.0000000000e+00
  7         0.0000000000e+00
  8        -9.8406608178e-01
  9         0.0000000000e+00
 10         0.0000000000e+00
 11         0.0000000000e+00
 12         0.0000000000e+00
 Sym= A1
 Ene=         1.1280161226e+00
 Spin= Beta
 Occup=         0.0000000000e+00
  1         1.0657575583e-02
  2         1.2195908583e-02
  3         2.4690274277e-02
  4        -6.3216518605e-02
  5         0.0000000000e+00
  6         0.0000000000e+00
  7        -5.4176114648e-01
  8         0.0000000000e+00
  9         0.0000000000e+00
 10        -1.4780730778e-02
 11         1.3679913197e+00
 12        -9.1993283323e-01
 Sym= A1
 Ene=         1.5219565087e+00
 Spin= Beta
 Occup=         0.0000000000e+00
  1         1.4561194436e-01
  2         2.5219491289e-01
  3        -1.8666559783e+00
  4         2.4418107584e+00
  5         0.0000000000e+00
  6         0.0000000000e+00
  7        -1.8885510647e-01
  8         0.0000000000e+00
  9         0.0000000000e+00
 10         8.1734078109e-01
 11        -8.9883483343e-02
 12        -1.1558842331e+00
 Sym= A1
 Ene=         4.3228969818e+01
 Spin= Beta
 Occup=         0.0000000000e+00
  1         1.7310892366e+00
  2        -1.8733475589e+00
  3         3.6637725974e-01
  4        -2.8701859181e-01
  5         0.0000000000e+00
  6         0.0000000000e+00
  7         1.1473676956e-02
  8         0.0000000000e+00
  9         0.0000000000e+00
 10        -6.8835622907e-02
 11        -2.4551717933e-03
 12         1.1641459553e-01
