[Molden Format]
[Atoms] (AU)
C    1    6          -0.4107226241        -1.1363190162         0.0005889463
F    2    9          -0.4107226241        -1.1363190162         2.6377395489
CL   3   17          -0.4107226241         2.2264047190        -0.9826079026
H    4    1          -2.1149771380        -1.9805635460        -0.6662680044
O    5    8           1.6226627515        -2.4267831965        -0.9160985848
H    6    1           3.2460189544        -1.8043728211        -0.4314593503
[GTO]
  1 0
 s    6  1.00
     4232.6100000000         0.0020290000
      634.8820000000         0.0155350000
      146.0970000000         0.0754110000
       42.4974000000         0.2571210000
       14.1892000000         0.5965550000
        1.9666000000         0.2425170000
 s    1  1.00
        5.1477000000         1.0000000000
 s    1  1.00
        0.4962000000         1.0000000000
 s    1  1.00
        0.1533000000         1.0000000000
 p    4  1.00
       18.1557000000         0.0185340000
        3.9864000000         0.1154420000
        1.1429000000         0.3862060000
        0.3594000000         0.6400890000
 p    1  1.00
        0.1146000000         1.0000000000

  2 0
 s    6  1.00
     9994.7900000000         0.0020170000
     1506.0300000000         0.0152950000
      350.2690000000         0.0731100000
      104.0530000000         0.2464200000
       34.8432000000         0.6125930000
        4.3688000000         0.2424890000
 s    1  1.00
       12.2164000000         1.0000000000
 s    1  1.00
        1.2078000000         1.0000000000
 s    1  1.00
        0.3634000000         1.0000000000
 p    4  1.00
       44.3555000000         0.0208680000
       10.0820000000         0.1300920000
        2.9959000000         0.3962190000
        0.9383000000         0.6203680000
 p    1  1.00
        0.2733000000         1.0000000000

  3 0
 s    5  1.00
    40850.0000000000         0.0025320000
     6179.0000000000         0.0192070000
     1425.0000000000         0.0952570000
      409.2000000000         0.3455890000
      135.5000000000         0.6364010000
 s    3  1.00
      135.5000000000         0.1209560000
       50.1300000000         0.6485110000
       20.2100000000         0.2754870000
 s    1  1.00
        6.2830000000         1.0000000000
 s    1  1.00
        2.4600000000         1.0000000000
 s    1  1.00
        0.5271000000         1.0000000000
 s    1  1.00
        0.1884000000         1.0000000000
 p    4  1.00
      240.8000000000         0.0145950000
       56.5600000000         0.0990470000
       17.8500000000         0.3305620000
        6.3500000000         0.6828740000
 p    2  1.00
        6.3500000000        -0.5617850000
        2.4030000000         1.3519010000
 p    1  1.00
        0.6410000000         1.0000000000
 p    1  1.00
        0.1838000000         1.0000000000

  4 0
 s    3  1.00
       19.2406000000         0.0328280000
        2.8992000000         0.2312080000
        0.6534000000         0.8172380000
 s    1  1.00
        0.1776000000         1.0000000000

  5 0
 s    6  1.00
     7816.5400000000         0.0020310000
     1175.8200000000         0.0154360000
      273.1880000000         0.0737710000
       81.1696000000         0.2476060000
       27.1836000000         0.6118320000
        3.4136000000         0.2412050000
 s    1  1.00
        9.5322000000         1.0000000000
 s    1  1.00
        0.9398000000         1.0000000000
 s    1  1.00
        0.2846000000         1.0000000000
 p    4  1.00
       35.1832000000         0.0195800000
        7.9040000000         0.1241890000
        2.3051000000         0.3947270000
        0.7171000000         0.6273750000
 p    1  1.00
        0.2137000000         1.0000000000

  6 0
 s    3  1.00
       19.2406000000         0.0328280000
        2.8992000000         0.2312080000
        0.6534000000         0.8172380000
 s    1  1.00
        0.1776000000         1.0000000000

[MO]
 Sym= A
 Ene=        -1.0486424429e+02
 Spin= Alpha
 Occup=         2.0000000000e+00
  1         6.7629993097e-07
  2        -2.3786356420e-06
  3         2.3416002748e-05
  4        -1.0845176803e-04
  5        -1.9436526623e-06
  6        -2.8684475294e-06
  7        -1.9749769872e-07
  8        -1.5049622003e-05
  9        -6.9316383226e-05
 10         1.2475527460e-05
 11        -7.2825997989e-08
 12         2.5989108525e-07
 13        -3.0988715649e-06
 14         1.7706187725e-05
 15        -7.7734799629e-07
 16        -2.2319705933e-07
 17        -1.3063788551e-06
 18         3.7402425281e-06
 19         8.0604305889e-06
 20        -7.4860651692e-06
 21         3.9708153974e-01
 22         6.7203566646e-01
 23         8.2578382583e-03
 24         5.8896243065e-04
 25        -4.1367318460e-04
 26         2.4675125800e-04
 27         1.8911988521e-06
 28        -7.8001788247e-05
 29         2.2446170478e-05
 30        -7.2980409204e-07
 31         2.2986840321e-05
 32        -6.5175356775e-06
 33         3.2044370132e-07
 34         4.7699489705e-06
 35        -1.7498365744e-06
 36         1.6349131792e-06
 37        -5.9361039476e-05
 38         1.9035664465e-05
 39         1.0536428262e-05
 40        -1.2118211400e-05
 41        -7.8032168200e-09
 42        -1.3786169174e-07
 43        -1.1182453815e-06
 44         1.6922406192e-05
 45        -2.2582420679e-06
 46         6.0369806182e-07
 47         3.9818919494e-07
 48        -6.3184080279e-07
 49         1.5949764268e-05
 50         1.1513046896e-06
 51        -2.2523413698e-07
 52         1.3906736531e-07
 Sym= A
 Ene=        -2.6327771120e+01
 Spin= Alpha
 Occup=         2.0000000000e+00
  1         7.7465841290e-06
  2         8.8146533688e-06
  3        -2.4163498919e-04
  4         1.0157086532e-03
  5         3.0471831737e-05
  6        -3.9404653082e-05
  7         4.4806302855e-05
  8         1.1620242664e-04
  9         9.1261113668e-05
 10         3.5298555605e-04
 11        -5.7989372170e-01
 12        -4.6221726974e-01
 13         3.9452615636e-04
 14        -2.1773381090e-03
 15        -1.8652229772e-05
 16        -4.1478390638e-06
 17         1.0542159874e-03
 18         3.5885588443e-06
 19        -1.2636774877e-05
 20        -1.5935060703e-04
 21         1.8702412762e-07
 22        -6.3470277375e-07
 23         8.0937346262e-06
 24        -2.4354085131e-05
 25         1.0869934724e-04
 26        -2.7890906087e-04
 27        -2.8041836356e-07
 28         1.5497205160e-06
 29        -2.6676290872e-06
 30        -2.7424555853e-06
 31        -9.6707963671e-06
 32        -2.8849174620e-06
 33         9.5869075631e-06
 34         1.2186227475e-05
 35         2.5171169127e-05
 36        -3.1472175881e-05
 37         1.2779309063e-04
 38        -1.4315344147e-04
 39        -5.4638646278e-05
 40        -7.0598201395e-05
 41         3.2637113318e-07
 42        -8.9874501391e-06
 43         8.5762041649e-05
 44        -2.8872168996e-04
 45         2.5449372851e-06
 46        -5.1563049508e-06
 47         1.5614576574e-05
 48         9.1549042987e-05
 49        -8.1213898432e-05
 50        -1.6604954815e-04
 51         4.8123689753e-05
 52        -9.8499308688e-05
 Sym= A
 Ene=        -2.0626719956e+01
 Spin= Alpha
 Occup=         2.0000000000e+00
  1         7.5951616566e-06
  2         2.7128552622e-05
  3        -3.0408531416e-04
  4         1.6321506085e-03
  5         4.5455744436e-05
  6        -5.9267586443e-05
  7         3.3565053135e-05
  8         7.4237603243e-06
  9        -6.2006681695e-04
 10        -4.6721260749e-04
 11        -3.2589725978e-06
 12        -1.0801837760e-05
 13         7.6863906815e-05
 14        -2.0609952853e-04
 15         1.7418094153e-05
 16        -3.5677987888e-05
 17        -1.8158863448e-05
 18        -4.9311270965e-05
 19         1.6392636960e-04
 20         1.7554909545e-04
 21         2.0280878811e-07
 22         3.2849353638e-07
 23         1.3732946314e-06
 24        -1.0903598797e-05
 25         6.4309868002e-05
 26        -1.0446020289e-04
 27        -2.3757546608e-06
 28         4.0698468294e-06
 29         1.1587286961e-06
 30        -5.4223744483e-06
 31        -2.8959826733e-06
 32         1.4035094194e-05
 33         2.5537590072e-05
 34        -1.6498471757e-05
 35        -4.5913759114e-05
 36        -5.4644781920e-05
 37         1.7621778914e-04
 38         1.1638523446e-04
 39        -3.3046248665e-05
 40        -6.4038476525e-04
 41        -5.8093958668e-01
 42        -4.6125860298e-01
 43         1.3763051609e-04
 44        -2.4300377814e-03
 45        -8.5982026550e-05
 46        -1.3582541955e-03
 47        -9.9383983025e-04
 48         5.5885958353e-04
 49         4.8917082234e-04
 50         3.6968001461e-04
 51        -1.1072140469e-04
 52        -9.8253204477e-05
 Sym= A
 Ene=        -1.1482584638e+01
 Spin= Alpha
 Occup=         2.0000000000e+00
  1         6.0114414703e-01
  2         4.3752898390e-01
  3         3.7936283398e-03
  4         6.5215218408e-04
  5         9.2348962053e-04
  6         2.9329869207e-04
  7         7.0921628347e-04
  8        -4.4281059392e-04
  9        -5.5275498734e-05
 10        -2.3383990735e-04
 11        -6.4827203611e-05
 12        -1.0420214013e-04
 13         3.7749510905e-04
 14        -3.6063835311e-04
 15        -1.6923821470e-05
 16         1.8209442140e-06
 17        -4.6025615569e-04
 18        -4.3747516413e-06
 19        -3.7287664397e-05
 20         3.4536891510e-04
 21        -1.0049960873e-05
 22        -3.0774482079e-05
 23         6.7443517096e-05
 24        -3.5007132764e-05
 25         1.9357786475e-04
 26        -1.5241866934e-04
 27         3.0927443713e-06
 28         5.6133646529e-05
 29        -1.4787652403e-05
 30         5.3008263322e-06
 31         2.7008515107e-05
 32        -4.2738482096e-06
 33        -1.8536192938e-05
 34        -2.2552146632e-04
 35         5.5913332054e-05
 36         5.3750194571e-05
 37         8.3728400291e-05
 38        -1.4543071768e-06
 39         8.6112344156e-04
 40        -4.5828793235e-04
 41        -9.9015692342e-05
 42        -1.4956783260e-04
 43         4.3936162695e-04
 44        -3.1495876906e-04
 45        -3.8718138048e-04
 46         2.6130347383e-04
 47         1.6778496914e-04
 48         4.2140909773e-05
 49        -1.6807822138e-04
 50        -9.7695637074e-05
 51         2.7494337289e-05
 52         1.5369860472e-04
 Sym= A
 Ene=        -1.0586210247e+01
 Spin= Alpha
 Occup=         2.0000000000e+00
  1        -8.9358814917e-05
  2         1.9838963609e-05
  3        -8.8343376691e-04
  4         4.2166399093e-03
  5         7.0823524347e-05
  6         1.1946422460e-04
  7         5.1080471616e-06
  8         5.3389773444e-04
  9         2.8052776004e-03
 10        -5.1548177066e-04
 11         2.4965901313e-06
 12         1.4844342423e-06
 13         5.3556966639e-05
 14        -5.6684864601e-04
 15         2.4552178224e-05
 16        -2.0830508394e-06
 17         4.8284219201e-05
 18        -1.2932872317e-04
 19        -2.7271353333e-04
 20         2.6185100239e-04
 21        -1.1701292368e-01
 22        -3.3442895224e-01
 23         5.5416464561e-01
 24         5.6566335271e-01
 25         3.8992703333e-02
 26        -1.2173346780e-02
 27         2.3822941777e-04
 28        -8.1880769284e-03
 29         2.3310447000e-03
 30         8.8496207056e-05
 31        -2.9470447289e-03
 32         8.3549789713e-04
 33         1.4589491113e-05
 34        -9.8084693828e-04
 35         2.9766354844e-04
 36        -6.5664106402e-05
 37         2.5535760576e-03
 38        -8.1425926241e-04
 39        -3.8882051989e-04
 40         5.1276558697e-04
 41         3.8038607883e-06
 42         1.0325279006e-05
 43        -1.5883893007e-05
 44        -5.3640814392e-04
 45         8.8242515082e-05
 46        -2.7208019404e-05
 47        -9.5722144214e-06
 48        -2.1047150673e-05
 49        -5.6707451493e-04
 50        -3.9882998449e-05
 51        -2.9090525544e-05
 52         7.8404930755e-05
 Sym= A
 Ene=        -8.0521428684e+00
 Spin= Alpha
 Occup=         2.0000000000e+00
  1        -3.4099794409e-05
  2         2.0754897917e-05
  3        -8.9436415410e-05
  4         1.1701475484e-03
  5        -2.0335519663e-05
  6         9.6530497767e-05
  7        -4.3228157233e-05
  8         3.3711944013e-05
  9         6.7251589012e-04
 10        -1.5898110444e-04
 11         3.7367354045e-06
 12         1.3449080483e-05
 13        -1.0928321439e-04
 14         9.5226782993e-05
 15         8.6944080785e-07
 16        -2.9772579969e-05
 17         1.6421430011e-05
 18        -4.8757144886e-06
 19         1.1414882400e-04
 20        -4.3255940824e-05
 21         1.2766905173e-03
 22         3.7108284426e-03
 23        -7.1407076551e-03
 24        -5.1760939159e-03
 25         1.5534165809e-03
 26        -1.6846646498e-03
 27         5.9871959008e-03
 28        -8.6078754961e-01
 29         2.5396631502e-01
 30         1.4595589906e-03
 31        -2.1373809276e-01
 32         6.3059942127e-02
 33         1.6196675402e-04
 34        -2.2222995780e-02
 35         6.5676184435e-03
 36        -4.0932860121e-05
 37         3.5996522265e-03
 38        -1.0781738524e-03
 39        -9.8125743967e-05
 40         2.0037563768e-04
 41         3.5676941641e-06
 42         1.6421635059e-05
 43        -1.4359785871e-04
 44         1.4128530157e-04
 45         2.2206917068e-05
 46        -2.4403246617e-05
 47         4.6168450324e-06
 48        -1.4995083471e-05
 49         9.7924030380e-05
 50        -6.1121007807e-06
 51        -1.0038336061e-04
 52         8.4833742865e-05
 Sym= A
 Ene=        -8.0487105079e+00
 Spin= Alpha
 Occup=         2.0000000000e+00
  1        -1.4302393668e-06
  2        -1.2321522823e-05
  3         1.1714365030e-04
  4        -7.7712236940e-04
  5        -3.5075288067e-05
  6         1.0467307978e-05
  7        -1.4302735130e-05
  8         1.4821104391e-03
  9         2.0731432469e-05
 10         3.7855301446e-04
 11        -5.6055963668e-07
 12        -2.5858936517e-06
 13         2.5056644341e-05
 14        -6.7925512837e-05
 15         5.1549873376e-05
 16        -3.2912209789e-06
 17         7.9353477533e-06
 18        -3.0136823450e-04
 19         1.8122467694e-05
 20        -5.8427058837e-05
 21         2.5876885841e-05
 22         7.5625128956e-05
 23        -1.4585078579e-04
 24        -9.8927261892e-05
 25        -2.4198580364e-05
 26         1.7283270605e-04
 27         8.9547863514e-01
 28         2.6882087218e-02
 29         7.0078508443e-02
 30         2.2061670675e-01
 31         6.6506894202e-03
 32         1.7258252848e-02
 33         2.2188166514e-02
 34         6.5947403686e-04
 35         1.7519670363e-03
 36        -3.1082824751e-03
 37        -1.8637500868e-04
 38        -2.6357662450e-04
 39        -4.9892834734e-05
 40         1.1202884719e-03
 41        -6.8549463847e-07
 42        -4.3642009116e-06
 43         4.9018281498e-05
 44        -2.7242354120e-04
 45        -5.6968331848e-06
 46        -2.9523039778e-05
 47         3.4498103542e-05
 48        -1.4009124074e-05
 49         9.2585396285e-05
 50        -2.0350226356e-04
 51        -8.4470659603e-06
 52        -2.1871513856e-04
 Sym= A
 Ene=        -8.0485648844e+00
 Spin= Alpha
 Occup=         2.0000000000e+00
  1         1.0841458685e-06
  2         8.6853847774e-06
  3        -9.3307776623e-05
  4         6.4284956165e-04
  5        -1.7133475431e-05
  6        -8.1775962937e-06
  7         6.5876386027e-05
  8        -2.0549204938e-04
  9        -3.4606779379e-04
 10        -8.7715643953e-04
 11         1.0215051686e-07
 12         1.9474694664e-06
 13        -2.9117043751e-05
 14         2.0929539573e-04
 15         2.8769821545e-07
 16         4.1464977543e-05
 17        -1.6295177205e-05
 18         1.7108099422e-05
 19        -1.3826750338e-04
 20         1.1907817613e-04
 21         1.4184805691e-05
 22         4.1456148265e-05
 23        -7.9473195675e-05
 24        -5.5742019302e-05
 25         1.7791657486e-05
 26        -5.8417265653e-05
 27         7.4826969630e-02
 28        -2.5293909421e-01
 29        -8.5905530588e-01
 30         1.8431467816e-02
 31        -6.2309155673e-02
 32        -2.1161960088e-01
 33         1.8375823225e-03
 34        -6.2445035538e-03
 35        -2.1250867763e-02
 36        -2.0052906888e-04
 37         8.9175332729e-04
 38         2.8708963716e-03
 39         8.9009261988e-07
 40        -5.2989622864e-04
 41        -5.0854146509e-08
 42        -8.1250142658e-07
 43         9.7895949254e-06
 44        -1.6953698764e-04
 45        -3.2921772797e-05
 46        -3.8244204882e-05
 47        -1.8038240084e-05
 48         3.1610505937e-04
 49         1.7233062682e-04
 50         1.6907249214e-04
 51        -8.7979761848e-05
 52        -1.0945896216e-04
 Sym= A
 Ene=        -1.6532713383e+00
 Spin= Alpha
 Occup=         2.0000000000e+00
  1         4.0593554650e-02
  2         5.4494653808e-02
  3        -1.4881427276e-01
  4        -4.3363931651e-02
  5        -1.6675201459e-02
  6         4.8630495209e-03
  7        -9.5120077468e-02
  8         5.0242400459e-03
  9        -5.2789780235e-03
 10         1.3132256613e-02
 11         1.3434149282e-01
 12         1.8434348984e-01
 13        -5.3786847495e-01
 14        -4.6106389199e-01
 15        -3.1885951822e-03
 16        -1.8252616211e-04
 17         9.5955057114e-02
 18        -1.8048287102e-03
 19         3.9616382114e-04
 20         2.5947705396e-02
 21        -1.1832806137e-03
 22        -3.5531309922e-03
 23         7.2435794048e-03
 24         1.4144891868e-02
 25        -2.4539479012e-02
 26        -4.8370820287e-03
 27         2.1272997788e-04
 28        -5.0363176727e-03
 29         2.8170345133e-03
 30         1.7355248419e-05
 31        -1.2758375994e-03
 32         5.6629873185e-04
 33        -3.7732913750e-04
 34         1.1801498456e-02
 35        -6.1709660896e-03
 36        -7.3846675372e-04
 37         6.0293842509e-04
 38        -2.7853667518e-03
 39        -1.7334656237e-02
 40         3.9781766244e-03
 41         2.0442827088e-02
 42         2.8379353018e-02
 43        -8.0813271573e-02
 44        -5.7617851218e-02
 45         1.3755220910e-02
 46        -2.0331111888e-02
 47        -2.2568581873e-02
 48         4.0542430385e-03
 49        -3.6016421627e-03
 50        -3.8278843565e-03
 51        -1.6214232103e-02
 52        -1.0805542949e-03
 Sym= A
 Ene=        -1.4596874544e+00
 Spin= Alpha
 Occup=         2.0000000000e+00
  1         4.0276100520e-02
  2         5.4245896190e-02
  3        -1.5169537923e-01
  4        -5.5547102578e-02
  5        -1.1359774157e-01
  6         5.9184006076e-02
  7         7.6878239111e-02
  8         1.3075632655e-02
  9        -1.3182293580e-02
 10        -5.5092183032e-03
 11        -3.5105073749e-02
 12        -4.8117465235e-02
 13         1.3923511608e-01
 14         1.3969316699e-01
 15        -1.2034337929e-02
 16         6.4693423857e-03
 17         6.9003739055e-03
 18        -5.7091134086e-04
 19         1.8529757084e-03
 20         6.7932563953e-04
 21        -1.8539427701e-03
 22        -5.5979714260e-03
 23         1.1693015941e-02
 24         2.1693097115e-02
 25        -3.7921760940e-02
 26        -1.1191365351e-02
 27         1.8861005826e-03
 28        -7.1129069235e-03
 29         4.9323980245e-04
 30         1.8043315139e-04
 31        -1.5767911397e-03
 32         2.6244711270e-04
 33        -3.6413565334e-03
 34         1.6283051101e-02
 35        -1.5649182972e-03
 36        -3.6789794559e-03
 37         2.7545722078e-03
 38         2.1556030402e-03
 39        -2.0951266225e-02
 40         1.6634244805e-03
 41         1.2360085944e-01
 42         1.7156446162e-01
 43        -4.8367526623e-01
 44        -4.1421103447e-01
 45         1.0890609062e-02
 46        -9.7614668366e-02
 47        -6.7314988849e-02
 48        -1.0606120357e-02
 49        -1.9094315593e-02
 50        -1.5273396479e-02
 51        -1.1929523433e-01
 52         8.2150001250e-03
 Sym= A
 Ene=        -1.1438621917e+00
 Spin= Alpha
 Occup=         2.0000000000e+00
  1         4.6433378801e-02
  2         6.3501657948e-02
  3        -1.8058167275e-01
  4        -1.5484962286e-01
  5         3.8748258044e-02
  6        -1.1993987290e-01
  7         4.4337029495e-02
  8         8.4538743852e-03
  9        -3.7606098357e-04
 10         1.5159987639e-02
 11        -1.8890312211e-02
 12        -2.5816938173e-02
 13         7.3349886389e-02
 14         1.0081136610e-01
 15         9.5958733027e-03
 16        -3.0834435615e-02
 17         5.5691267219e-02
 18         1.8694693004e-03
 19        -6.8407727153e-03
 20         1.0874017922e-02
 21        -3.0109718039e-02
 22        -9.1925657682e-02
 23         2.0120778799e-01
 24         3.3363835201e-01
 25        -5.6548945892e-01
 26        -4.2604657367e-01
 27        -3.2010804789e-04
 28        -3.5077059519e-02
 29         9.7475907631e-03
 30        -1.0664555675e-04
 31        -7.2732791138e-03
 32         1.9482128188e-03
 33         1.1425209276e-03
 34         7.8599421874e-02
 35        -2.1387240110e-02
 36        -2.4860778348e-03
 37         3.3172298789e-02
 38        -1.1475029786e-02
 39        -4.9417893047e-02
 40         2.0808389983e-02
 41        -2.5411839341e-02
 42        -3.5193009282e-02
 43         9.6274531509e-02
 44         1.2436623322e-01
 45         6.1997806744e-02
 46        -2.0191017296e-02
 47         1.4351463442e-02
 48         2.1886204284e-03
 49        -3.5652131854e-04
 50         1.2449094690e-03
 51         4.6246246802e-02
 52         1.5853946214e-02
 Sym= A
 Ene=        -9.6118697225e-01
 Spin= Alpha
 Occup=         2.0000000000e+00
  1         8.9501479886e-02
  2         1.2326751138e-01
  3        -3.7877558213e-01
  4        -2.4727022518e-01
  5         7.8541831323e-02
  6         1.4273278508e-01
  7         3.1327805032e-02
  8         3.3728469382e-02
  9        -3.8478399885e-03
 10         3.6308758465e-02
 11        -2.8641484854e-02
 12        -3.9409562491e-02
 13         1.1783242722e-01
 14         1.4619017916e-01
 15         3.5680799852e-02
 16         4.8612812863e-02
 17         2.0119393484e-01
 18         8.7933794300e-03
 19         1.7064264711e-02
 20         7.2303244678e-02
 21         1.3716290376e-02
 22         4.2131788215e-02
 23        -9.4562129801e-02
 24        -1.4741277289e-01
 25         2.4310601795e-01
 26         2.6982133381e-01
 27        -4.9828368690e-03
 28        -2.1325320787e-02
 29         3.4204508895e-03
 30        -7.4702360768e-04
 31        -2.7936629890e-03
 32         3.5042363655e-04
 33         1.1531412493e-02
 34         4.8164167250e-02
 35        -7.2702053752e-03
 36         3.0360643659e-03
 37         7.5008592527e-03
 38        -3.5438391907e-03
 39        -1.5815472639e-01
 40        -1.2947468966e-02
 41        -2.4667379410e-02
 42        -3.4286797074e-02
 43         9.5322781286e-02
 44         1.3132081412e-01
 45         3.0368933239e-01
 46        -8.9503442281e-03
 47        -2.2598322251e-02
 48         5.6107957575e-02
 49         1.9095354219e-03
 50        -1.2145080941e-02
 51         1.4892055347e-01
 52         5.5233118449e-02
 Sym= A
 Ene=        -7.8916457035e-01
 Spin= Alpha
 Occup=         2.0000000000e+00
  1         1.9697622682e-02
  2         2.7859677540e-02
  3        -8.4139520923e-02
  4        -3.9914366195e-02
  5         9.8158766300e-02
  6        -1.7638451559e-01
  7        -3.0260173491e-01
  8        -2.4723745725e-03
  9        -2.5227105970e-02
 10         2.1804565856e-02
 11        -2.8210505092e-02
 12        -3.8945770886e-02
 13         1.2218045124e-01
 14         1.4595060037e-01
 15         3.5043834881e-02
 16        -1.4358761399e-01
 17         4.2772618172e-01
 18         1.4390093347e-02
 19        -6.0055421390e-02
 20         1.7482101593e-01
 21         4.7229151001e-03
 22         1.4580238870e-02
 23        -3.3408630596e-02
 24        -4.9589562855e-02
 25         7.9160700396e-02
 26         1.1501197727e-01
 27        -2.6315142779e-03
 28        -2.1836837715e-02
 29         2.6537301793e-02
 30        -3.1544047412e-04
 31        -2.7973735206e-03
 32         2.7136086527e-03
 33         5.9179399545e-03
 34         4.8704332862e-02
 35        -5.7768207698e-02
 36         4.6827032520e-03
 37         1.9609883344e-02
 38        -4.5774600899e-02
 39         6.7692281357e-04
 40         4.3122413764e-03
 41        -1.3248051127e-02
 42        -1.8488166663e-02
 43         5.3466546057e-02
 44         6.0640183380e-02
 45        -3.5083793845e-01
 46        -4.2044680843e-02
 47        -1.0534522127e-01
 48        -1.0062688436e-01
 49        -2.4625533660e-02
 50        -5.3910509880e-02
 51        -1.6304963477e-01
 52        -5.9366854717e-02
 Sym= A
 Ene=        -7.7781866590e-01
 Spin= Alpha
 Occup=         2.0000000000e+00
  1         1.7882703214e-03
  2         2.9946612643e-03
  3        -1.6988328903e-02
  4         4.6010273870e-02
  5        -4.1899204363e-01
  6        -3.4835202237e-02
  7        -1.0090940438e-01
  8        -7.3445011323e-02
  9        -3.5753364118e-02
 10        -9.7646989536e-03
 11        -7.4101154235e-03
 12        -1.0207939891e-02
 13         3.1881038403e-02
 14         3.8564631319e-02
 15        -4.2730677651e-01
 16        -4.0825910199e-02
 17         1.2413880544e-01
 18        -1.7908444740e-01
 19        -1.3787756712e-02
 20         5.3116418179e-02
 21        -6.7852293751e-05
 22        -1.6443289380e-04
 23        -2.0230521225e-05
 24         2.2285426077e-03
 25        -8.3811276847e-03
 26         1.6266408684e-02
 27         2.5143939007e-02
 28         1.1009700144e-03
 29         7.8556655152e-03
 30         2.8800876112e-03
 31        -1.1176822674e-04
 32         9.2820254265e-04
 33        -5.6700218873e-02
 34        -8.2460978815e-04
 35        -1.7945444079e-02
 36        -3.3615489610e-02
 37        -7.5401281715e-03
 38        -1.0242831335e-02
 39         1.5860939045e-01
 40         5.2110172317e-02
 41        -1.7286241593e-02
 42        -2.4046571233e-02
 43         7.1498430104e-02
 44         9.9874856963e-02
 45         2.0600081005e-01
 46        -1.3504165343e-01
 47        -1.6006610207e-01
 48         6.3106523941e-02
 49        -3.8499464827e-02
 50        -6.2532239769e-02
 51         7.7889275405e-02
 52         4.3954325002e-02
 Sym= A
 Ene=        -7.2726389860e-01
 Spin= Alpha
 Occup=         2.0000000000e+00
  1         1.4330073031e-02
  2         1.9388883094e-02
  3        -4.6416012220e-02
  4        -1.1581448870e-01
  5        -3.1801657682e-02
  6        -2.0967767851e-01
  7         1.8253670688e-01
  8        -1.0831992394e-02
  9        -5.6487635081e-02
 10         2.6358640070e-03
 11         8.1997432617e-03
 12         1.1490244889e-02
 13        -4.0006602747e-02
 14        -2.7510001572e-02
 15         1.1149465831e-02
 16        -5.4342455772e-01
 17        -1.8502556506e-01
 18         9.4740360797e-03
 19        -2.4757398237e-01
 20        -8.3766635287e-02
 21         8.4033652595e-03
 22         2.5919419467e-02
 23        -5.9225850567e-02
 24        -8.9833229842e-02
 25         1.4694321005e-01
 26         2.1117647679e-01
 27         5.1611588471e-03
 28        -6.6367975271e-02
 29         2.1070414373e-02
 30         3.5792828885e-04
 31        -7.0084292651e-03
 32         1.9467219716e-03
 33        -1.0769957414e-02
 34         1.4272621636e-01
 35        -4.3979052559e-02
 36        -9.6728116286e-03
 37         8.6783407341e-02
 38        -3.2408378209e-02
 39        -7.0616635946e-03
 40         1.1322496439e-03
 41        -2.1700220261e-03
 42        -2.8923104306e-03
 43         6.9244808993e-03
 44         2.0640229238e-02
 45         3.2727753829e-02
 46        -1.7726749071e-01
 47         1.6460450237e-01
 48         9.6380043433e-03
 49        -6.5838179433e-02
 50         7.9370904380e-02
 51         8.6560208227e-03
 52         1.1895918078e-02
 Sym= A
 Ene=        -6.5520086966e-01
 Spin= Alpha
 Occup=         2.0000000000e+00
  1         2.1979782051e-02
  2         2.9818190248e-02
  3        -7.6901676345e-02
  4        -1.5206858043e-01
  5         8.4508916715e-02
  6        -8.6142440919e-02
  7         1.7831890597e-01
  8        -1.9586604908e-02
  9        -1.3008210045e-02
 10         1.4701538302e-02
 11         4.4720452872e-03
 12         6.3818935992e-03
 13        -2.5678010026e-02
 14        -2.5633231587e-03
 15        -2.4073097970e-01
 16         3.6689946666e-01
 17        -1.8185849090e-01
 18        -1.1576329485e-01
 19         1.8891198220e-01
 20        -9.4764680376e-02
 21         4.4528914098e-03
 22         1.3791667409e-02
 23        -3.2039326037e-02
 24        -4.6401848347e-02
 25         7.4584045167e-02
 26         1.2531792895e-01
 27         3.5469949009e-03
 28        -6.6184269801e-02
 29        -1.2752220204e-02
 30         3.0238607958e-04
 31        -7.0726248106e-03
 32        -6.0889375824e-04
 33        -8.0131837656e-03
 34         1.4435139403e-01
 35         2.7062174467e-02
 36        -4.2762051683e-03
 37         1.0366598816e-01
 38         3.8019610962e-02
 39        -9.7671837991e-02
 40        -6.6142930022e-02
 41        -3.1521913570e-02
 42        -4.3993181383e-02
 43         1.2833325804e-01
 44         2.0256198172e-01
 45        -2.2775694803e-01
 46        -3.3824092878e-01
 47        -1.2023269524e-02
 48        -1.1263727483e-01
 49        -1.6440344479e-01
 50        -1.8724403973e-02
 51        -1.3230209295e-01
 52        -3.4301723846e-02
 Sym= A
 Ene=        -6.3609549808e-01
 Spin= Alpha
 Occup=         2.0000000000e+00
  1         8.5996617342e-04
  2         9.2298350758e-04
  3         3.9710160005e-03
  4        -5.3931345115e-02
  5         2.7611434511e-01
  6         5.2474556448e-02
  7         2.1645505071e-02
  8         3.3039381441e-03
  9         1.3302996216e-02
 10         2.0988535595e-02
 11        -2.4907067547e-04
 12        -4.2539222547e-04
 13         2.3251683702e-03
 14        -2.1188807856e-03
 15        -5.6210759082e-01
 16        -1.6157750438e-01
 17        -3.3341295001e-02