[Molden Format]
[Atoms] (AU)
C    1    6          -0.4107226241        -1.1363190162         0.0005889463
F    2    9          -0.4107226241        -1.1363190162         2.6377395489
CL   3   17          -0.4107226241         2.2264047190        -0.9826079026
H    4    1          -2.1149771380        -1.9805635460        -0.6662680044
O    5    8           1.6226627515        -2.4267831965        -0.9160985848
H    6    1           3.2460189544        -1.8043728211        -0.4314593503
[GTO]
  1 0
 s    6  1.00
     4232.6100000000         0.0020290000
      634.8820000000         0.0155350000
      146.0970000000         0.0754110000
       42.4974000000         0.2571210000
       14.1892000000         0.5965550000
        1.9666000000         0.2425170000
 s    1  1.00
        5.1477000000         1.0000000000
 s    1  1.00
        0.4962000000         1.0000000000
 s    1  1.00
        0.1533000000         1.0000000000
 p    4  1.00
       18.1557000000         0.0185340000
        3.9864000000         0.1154420000
        1.1429000000         0.3862060000
        0.3594000000         0.6400890000
 p    1  1.00
        0.1146000000         1.0000000000

  2 0
 s    6  1.00
     9994.7900000000         0.0020170000
     1506.0300000000         0.0152950000
      350.2690000000         0.0731100000
      104.0530000000         0.2464200000
       34.8432000000         0.6125930000
        4.3688000000         0.2424890000
 s    1  1.00
       12.2164000000         1.0000000000
 s    1  1.00
        1.2078000000         1.0000000000
 s    1  1.00
        0.3634000000         1.0000000000
 p    4  1.00
       44.3555000000         0.0208680000
       10.0820000000         0.1300920000
        2.9959000000         0.3962190000
        0.9383000000         0.6203680000
 p    1  1.00
        0.2733000000         1.0000000000

  3 0
 s    5  1.00
    40850.0000000000         0.0025320000
     6179.0000000000         0.0192070000
     1425.0000000000         0.0952570000
      409.2000000000         0.3455890000
      135.5000000000         0.6364010000
 s    3  1.00
      135.5000000000         0.1209560000
       50.1300000000         0.6485110000
       20.2100000000         0.2754870000
 s    1  1.00
        6.2830000000         1.0000000000
 s    1  1.00
        2.4600000000         1.0000000000
 s    1  1.00
        0.5271000000         1.0000000000
 s    1  1.00
        0.1884000000         1.0000000000
 p    4  1.00
      240.8000000000         0.0145950000
       56.5600000000         0.0990470000
       17.8500000000         0.3305620000
        6.3500000000         0.6828740000
 p    2  1.00
        6.3500000000        -0.5617850000
        2.4030000000         1.3519010000
 p    1  1.00
        0.6410000000         1.0000000000
 p    1  1.00
        0.1838000000         1.0000000000

  4 0
 s    3  1.00
       19.2406000000         0.0328280000
        2.8992000000         0.2312080000
        0.6534000000         0.8172380000
 s    1  1.00
        0.1776000000         1.0000000000

  5 0
 s    6  1.00
     7816.5400000000         0.0020310000
     1175.8200000000         0.0154360000
      273.1880000000         0.0737710000
       81.1696000000         0.2476060000
       27.1836000000         0.6118320000
        3.4136000000         0.2412050000
 s    1  1.00
        9.5322000000         1.0000000000
 s    1  1.00
        0.9398000000         1.0000000000
 s    1  1.00
        0.2846000000         1.0000000000
 p    4  1.00
       35.1832000000         0.0195800000
        7.9040000000         0.1241890000
        2.3051000000         0.3947270000
        0.7171000000         0.6273750000
 p    1  1.00
        0.2137000000         1.0000000000

  6 0
 s    3  1.00
       19.2406000000         0.0328280000
        2.8992000000         0.2312080000
        0.6534000000         0.8172380000
 s    1  1.00
        0.1776000000         1.0000000000

[MO]
 Sym= A
 Ene=        -1.0486423626e+02
 Spin= Alpha
 Occup=         2.0000000000e+00
  1         6.7629833274e-07
  2        -2.3786386795e-06
  3         2.3416081121e-05
  4        -1.0845207190e-04
  5        -1.9436586932e-06
  6        -2.8684674947e-06
  7        -1.9748059216e-07
  8        -1.5049795618e-05
  9        -6.9316429409e-05
 10         1.2475434107e-05
 11        -7.2827168614e-08
 12         2.5990045159e-07
 13        -3.0989291648e-06
 14         1.7706345036e-05
 15        -7.7736049226e-07
 16        -2.2319236242e-07
 17        -1.3063782192e-06
 18         3.7402782120e-06
 19         8.0604288266e-06
 20        -7.4860962413e-06
 21         3.9708153895e-01
 22         6.7203566594e-01
 23         8.2578416959e-03
 24         5.8896071121e-04
 25        -4.1367288604e-04
 26         2.4675116632e-04
 27         1.8900237607e-06
 28        -7.8001886306e-05
 29         2.2444433422e-05
 30        -7.2937354605e-07
 31         2.2986917339e-05
 32        -6.5169013612e-06
 33         3.2022383652e-07
 34         4.7699396104e-06
 35        -1.7501613711e-06
 36         1.6350228590e-06
 37        -5.9361105911e-05
 38         1.9035819237e-05
 39         1.0536448616e-05
 40        -1.2118261456e-05
 41        -7.8041615356e-09
 42        -1.3785391446e-07
 43        -1.1182979622e-06
 44         1.6922560033e-05
 45        -2.2582439272e-06
 46         6.0370399695e-07
 47         3.9818322966e-07
 48        -6.3188202137e-07
 49         1.5949817843e-05
 50         1.1513651793e-06
 51        -2.2526261970e-07
 52         1.3914609759e-07
 Sym= A
 Ene=        -2.6327779415e+01
 Spin= Alpha
 Occup=         2.0000000000e+00
  1         7.7466689843e-06
  2         8.8147260918e-06
  3        -2.4163722142e-04
  4         1.0157197548e-03
  5         3.0472262984e-05
  6        -3.9405607811e-05
  7         4.4807465574e-05
  8         1.1620703368e-04
  9         9.1265684863e-05
 10         3.5298918049e-04
 11        -5.7989373156e-01
 12        -4.6221727179e-01
 13         3.9456122792e-04
 14        -2.1773550188e-03
 15        -1.8645296281e-05
 16        -4.1386086191e-06
 17         1.0542160351e-03
 18         3.5847828313e-06
 19        -1.2641618868e-05
 20        -1.5934657419e-04
 21         1.8702588945e-07
 22        -6.3471169967e-07
 23         8.0938305308e-06
 24        -2.4354358988e-05
 25         1.0870080191e-04
 26        -2.7891403725e-04
 27        -2.8038395854e-07
 28         1.5497006948e-06
 29        -2.6676075057e-06
 30        -2.7424992600e-06
 31        -9.6709491978e-06
 32        -2.8848317843e-06
 33         9.5870079650e-06
 34         1.2186542867e-05
 35         2.5170946449e-05
 36        -3.1473186570e-05
 37         1.2779513190e-04
 38        -1.4315455945e-04
 39        -5.4639633925e-05
 40        -7.0595598249e-05
 41         3.2639087513e-07
 42        -8.9874957176e-06
 43         8.5762704998e-05
 44        -2.8872492286e-04
 45         2.5449870728e-06
 46        -5.1562723761e-06
 47         1.5614493459e-05
 48         9.1549875217e-05
 49        -8.1215705982e-05
 50        -1.6605077443e-04
 51         4.8124277275e-05
 52        -9.8500898884e-05
 Sym= A
 Ene=        -2.0626716170e+01
 Spin= Alpha
 Occup=         2.0000000000e+00
  1         7.5952441112e-06
  2         2.7129142009e-05
  3        -3.0408867949e-04
  4         1.6321530848e-03
  5         4.5453339263e-05
  6        -5.9267307078e-05
  7         3.3566610636e-05
  8         7.4249902536e-06
  9        -6.2006861979e-04
 10        -4.6721346041e-04
 11        -3.2589878895e-06
 12        -1.0801872727e-05
 13         7.6864109566e-05
 14        -2.0609998908e-04
 15         1.7418024097e-05
 16        -3.5678036626e-05
 17        -1.8159054739e-05
 18        -4.9311526666e-05
 19         1.6392652422e-04
 20         1.7554945280e-04
 21         2.0281386918e-07
 22         3.2850857719e-07
 23         1.3732662069e-06
 24        -1.0903682128e-05
 25         6.4309980436e-05
 26        -1.0445973552e-04
 27        -2.3757221558e-06
 28         4.0699329448e-06
 29         1.1587759736e-06
 30        -5.4224292332e-06
 31        -2.8959614861e-06
 32         1.4035132634e-05
 33         2.5537698704e-05
 34        -1.6498766948e-05
 35        -4.5913914060e-05
 36        -5.4645273443e-05
 37         1.7621775626e-04
 38         1.1638532637e-04
 39        -3.3045902925e-05
 40        -6.4038520309e-04
 41        -5.8093958311e-01
 42        -4.6125860538e-01
 43         1.3762667975e-04
 44        -2.4300352502e-03
 45        -8.5987209837e-05
 46        -1.3582594261e-03
 47        -9.9384139611e-04
 48         5.5886341421e-04
 49         4.8917364323e-04
 50         3.6968057105e-04
 51        -1.1072082780e-04
 52        -9.8256565017e-05
 Sym= A
 Ene=        -1.1482581976e+01
 Spin= Alpha
 Occup=         2.0000000000e+00
  1         6.0114413946e-01
  2         4.3752898732e-01
  3         3.7936465502e-03
  4         6.5209794947e-04
  5         9.2349895576e-04
  6         2.9335611937e-04
  7         7.0921034930e-04
  8        -4.4282306817e-04
  9        -5.5289088915e-05
 10        -2.3383947045e-04
 11        -6.4827215386e-05
 12        -1.0420151380e-04
 13         3.7748618444e-04
 14        -3.6061393064e-04
 15        -1.6926484742e-05
 16         1.8181306408e-06
 17        -4.6026175936e-04
 18        -4.3756368092e-06
 19        -3.7292362969e-05
 20         3.4535771579e-04
 21        -1.0049840672e-05
 22        -3.0774080057e-05
 23         6.7442467568e-05
 24        -3.5007224533e-05
 25         1.9358173388e-04
 26        -1.5241740681e-04
 27         3.0936377973e-06
 28         5.6133606592e-05
 29        -1.4786489846e-05
 30         5.3010556215e-06
 31         2.7006996201e-05
 32        -4.2732203146e-06
 33        -1.8538461669e-05
 34        -2.2552118763e-04
 35         5.5910902459e-05
 36         5.3750250974e-05
 37         8.3734984458e-05
 38        -1.4585247296e-06
 39         8.6113440813e-04
 40        -4.5828155247e-04
 41        -9.9015718097e-05
 42        -1.4956734526e-04
 43         4.3935451936e-04
 44        -3.1493798566e-04
 45        -3.8718407618e-04
 46         2.6130373768e-04
 47         1.6778785232e-04
 48         4.2119634332e-05
 49        -1.6807277960e-04
 50        -9.7691522483e-05
 51         2.7494418142e-05
 52         1.5371543237e-04
 Sym= A
 Ene=        -1.0586203390e+01
 Spin= Alpha
 Occup=         2.0000000000e+00
  1        -8.9358051178e-05
  2         1.9839715204e-05
  3        -8.8343807903e-04
  4         4.2166540177e-03
  5         7.0823238631e-05
  6         1.1946372763e-04
  7         5.1072200883e-06
  8         5.3390224969e-04
  9         2.8052824988e-03
 10        -5.1548072757e-04
 11         2.4965542674e-06
 12         1.4843052741e-06
 13         5.3558105553e-05
 14        -5.6685259108e-04
 15         2.4552740827e-05
 16        -2.0831977250e-06
 17         4.8284147371e-05
 18        -1.2932955718e-04
 19        -2.7271364938e-04
 20         2.6185191022e-04
 21        -1.1701292055e-01
 22        -3.3442894346e-01
 23         5.5416460094e-01
 24         5.6566337474e-01
 25         3.8992735276e-02
 26        -1.2173355526e-02
 27         2.3810558139e-04
 28        -8.1880602829e-03
 29         2.3308801632e-03
 30         8.8449528212e-05
 31        -2.9470448109e-03
 32         8.3543432806e-04
 33         1.4588517663e-05
 34        -9.8085036279e-04
 35         2.9766428947e-04
 36        -6.5665722077e-05
 37         2.5535824442e-03
 38        -8.1426259883e-04
 39        -3.8882200711e-04
 40         5.1276673755e-04
 41         3.8038521785e-06
 42         1.0325185807e-05
 43        -1.5882738477e-05
 44        -5.3641260397e-04
 45         8.8242942886e-05
 46        -2.7208312539e-05
 47        -9.5720468835e-06
 48        -2.1046084905e-05
 49        -5.6707659634e-04
 50        -3.9884601457e-05
 51        -2.9090020969e-05
 52         7.8403021372e-05
 Sym= A
 Ene=        -8.0521360122e+00
 Spin= Alpha
 Occup=         2.0000000000e+00
  1        -3.4099851904e-05
  2         2.0754768401e-05
  3        -8.9438589541e-05
  4         1.1701596209e-03
  5        -2.0335697821e-05
  6         9.6532207680e-05
  7        -4.3228947772e-05
  8         3.3707868961e-05
  9         6.7251504507e-04
 10        -1.5898356323e-04
 11         3.7367494572e-06
 12         1.3449079776e-05
 13        -1.0928292427e-04
 14         9.5225232975e-05
 15         8.6940234158e-07
 16        -2.9772937823e-05
 17         1.6421557026e-05
 18        -4.8747771329e-06
 19         1.1414873640e-04
 20        -4.3254812598e-05
 21         1.2766819311e-03
 22         3.7108034536e-03
 23        -7.1406595282e-03
 24        -5.1760634737e-03
 25         1.5534229284e-03
 26        -1.6846684720e-03
 27         5.9866378839e-03
 28        -8.6078733457e-01
 29         2.5396714683e-01
 30         1.4593824169e-03
 31        -2.1373800333e-01
 32         6.3060084639e-02
 33         1.6194292881e-04
 34        -2.2222993920e-02
 35         6.5676270442e-03
 36        -4.0927480354e-05
 37         3.5996506799e-03
 38        -1.0781721254e-03
 39        -9.8126199297e-05
 40         2.0036883028e-04
 41         3.5676975554e-06
 42         1.6421595462e-05
 43        -1.4359712977e-04
 44         1.4128265657e-04
 45         2.2207067532e-05
 46        -2.4403798795e-05
 47         4.6167066757e-06
 48        -1.4993304100e-05
 49         9.7923106758e-05
 50        -6.1115861190e-06
 51        -1.0038326793e-04
 52         8.4833440149e-05
 Sym= A
 Ene=        -8.0487035602e+00
 Spin= Alpha
 Occup=         2.0000000000e+00
  1        -1.4304699008e-06
  2        -1.2322063021e-05
  3         1.1714757414e-04
  4        -7.7714755818e-04
  5        -3.5074420369e-05
  6         1.0468514445e-05
  7        -1.4305577403e-05
  8         1.4821234523e-03
  9         2.0744890286e-05
 10         3.7858884151e-04
 11        -5.6057281966e-07
 12        -2.5860178030e-06
 13         2.5058286325e-05
 14        -6.7935098179e-05
 15         5.1549963558e-05
 16        -3.2928950783e-06
 17         7.9360684539e-06
 18        -3.0136996026e-04
 19         1.8127642005e-05
 20        -5.8431450621e-05
 21         2.5857080501e-05
 22         7.5567347254e-05
 23        -1.4573731866e-04
 24        -9.8854843599e-05
 25        -2.4204252158e-05
 26         1.7283925777e-04
 27         8.9547564158e-01
 28         2.6891591035e-02
 29         7.0112674763e-02
 30         2.2061602342e-01
 31         6.6530726483e-03
 32         1.7266658496e-02
 33         2.2188118057e-02
 34         6.5971999295e-04
 35         1.7528107130e-03
 36        -3.1082768822e-03
 37        -1.8641200782e-04
 38        -2.6368990435e-04
 39        -4.9892763944e-05
 40         1.1203123486e-03
 41        -6.8549110218e-07
 42        -4.3642185900e-06
 43         4.9018657818e-05
 44        -2.7241934087e-04
 45        -5.6955126037e-06
 46        -2.9521984586e-05
 47         3.4498859021e-05
 48        -1.4020897238e-05
 49         9.2578024144e-05
 50        -2.0350964945e-04
 51        -8.4433430713e-06
 52        -2.1871240060e-04
 Sym= A
 Ene=        -8.0485579178e+00
 Spin= Alpha
 Occup=         2.0000000000e+00
  1         1.0842469459e-06
  2         8.6851503980e-06
  3        -9.3303495577e-05
  4         6.4282008997e-04
  5        -1.7135176705e-05
  6        -8.1779944573e-06
  7         6.5876232985e-05
  8        -2.0543377814e-04
  9        -3.4606597671e-04
 10        -8.7714448467e-04
 11         1.0213687282e-07
 12         1.9474262522e-06
 13        -2.9116784002e-05
 14         2.0929485420e-04
 15         2.8965592989e-07
 16         4.1465289223e-05
 17        -1.6294951783e-05
 18         1.7096062993e-05
 19        -1.3826689255e-04
 20         1.1907573847e-04
 21         1.4208337242e-05
 22         4.1524913602e-05
 23        -7.9610940744e-05
 24        -5.5824039772e-05
 25         1.7798124338e-05
 26        -5.8418389886e-05
 27         7.4862428688e-02
 28        -2.5293882988e-01
 29        -8.5905224518e-01
 30         1.8440213742e-02
 31        -6.2309159142e-02
 32        -2.1161890994e-01
 33         1.8384638601e-03
 34        -6.2445184224e-03
 35        -2.1250816066e-02
 36        -2.0065257912e-04
 37         8.9175427884e-04
 38         2.8708868958e-03
 39         8.8779594202e-07
 40        -5.2985177840e-04
 41        -5.0867839518e-08
 42        -8.1259672445e-07
 43         9.7908444575e-06
 44        -1.6954687349e-04
 45        -3.2921934177e-05
 46        -3.8245672331e-05
 47        -1.8036945330e-05
 48         3.1610479887e-04
 49         1.7233540079e-04
 50         1.6906515015e-04
 51        -8.7980799246e-05
 52        -1.0946723608e-04
 Sym= A
 Ene=        -1.6532753141e+00
 Spin= Alpha
 Occup=         2.0000000000e+00
  1         4.0593141145e-02
  2         5.4494098961e-02
  3        -1.4881290502e-01
  4        -4.3362377628e-02
  5        -1.6674484661e-02
  6         4.8628940111e-03
  7        -9.5120355369e-02
  8         5.0242766702e-03
  9        -5.2788424721e-03
 10         1.3132555980e-02
 11         1.3434188846e-01
 12         1.8434403540e-01
 13        -5.3787067796e-01
 14        -4.6106453772e-01
 15        -3.1886842288e-03
 16        -1.8261451757e-04
 17         9.5954096345e-02
 18        -1.8048443787e-03
 19         3.9625711405e-04
 20         2.5947562545e-02
 21        -1.1832467917e-03
 22        -3.5530284180e-03
 23         7.2433605916e-03
 24         1.4144507816e-02
 25        -2.4538803488e-02
 26        -4.8368903556e-03
 27         2.1271535935e-04
 28        -5.0362234478e-03
 29         2.8169944669e-03
 30         1.7351961002e-05
 31        -1.2758154878e-03
 32         5.6628755464e-04
 33        -3.7730016149e-04
 34         1.1801305513e-02
 35        -6.1708765682e-03
 36        -7.3844652911e-04
 37         6.0295177343e-04
 38        -2.7853897811e-03
 39        -1.7334404242e-02
 40         3.9781575131e-03
 41         2.0442216559e-02
 42         2.8378506135e-02
 43        -8.0810885889e-02
 44        -5.7616087493e-02
 45         1.3754976104e-02
 46        -2.0330458269e-02
 47        -2.2568070663e-02
 48         4.0543238995e-03
 49        -3.6016290017e-03
 50        -3.8278934164e-03
 51        -1.6213700531e-02
 52        -1.0806758819e-03
 Sym= A
 Ene=        -1.4596875822e+00
 Spin= Alpha
 Occup=         2.0000000000e+00
  1         4.0276280804e-02
  2         5.4246138840e-02
  3        -1.5169609958e-01
  4        -5.5546706553e-02
  5        -1.1359750694e-01
  6         5.9183536334e-02
  7         7.6877115019e-02
  8         1.3075622820e-02
  9        -1.3182700898e-02
 10        -5.5094264361e-03
 11        -3.5104352987e-02
 12        -4.8116479022e-02
 13         1.3923245241e-01
 14         1.3969036115e-01
 15        -1.2034421287e-02
 16         6.4693930127e-03
 17         6.9013865869e-03
 18        -5.7093986852e-04
 19         1.8530719450e-03
 20         6.7964392824e-04
 21        -1.8539287171e-03
 22        -5.5979277844e-03
 23         1.1692912921e-02
 24         2.1692958279e-02
 25        -3.7921557758e-02
 26        -1.1190941237e-02
 27         1.8860820375e-03
 28        -7.1129092813e-03
 29         4.9325616967e-04
 30         1.8042882458e-04
 31        -1.5767913965e-03
 32         2.6244729523e-04
 33        -3.6413170174e-03
 34         1.6283065761e-02
 35        -1.5649631086e-03
 36        -3.6789344794e-03
 37         2.7544704810e-03
 38         2.1556941620e-03
 39        -2.0951378893e-02
 40         1.6630569551e-03
 41         1.2360108306e-01
 42         1.7156478250e-01
 43        -4.8367638785e-01
 44        -4.1421170617e-01
 45         1.0890130759e-02
 46        -9.7614025326e-02
 47        -6.7314908250e-02
 48        -1.0606150837e-02
 49        -1.9094342491e-02
 50        -1.5273610794e-02
 51        -1.1929547762e-01
 52         8.2150247972e-03
 Sym= A
 Ene=        -1.1438593299e+00
 Spin= Alpha
 Occup=         2.0000000000e+00
  1         4.6434190728e-02
  2         6.3502769139e-02
  3        -1.8058478891e-01
  4        -1.5485248295e-01
  5         3.8748878313e-02
  6        -1.1993816496e-01
  7         4.4336985382e-02
  8         8.4542523568e-03
  9        -3.7607372862e-04
 10         1.5160494183e-02
 11        -1.8890419417e-02
 12        -2.5817088194e-02
 13         7.3350487760e-02
 14         1.0081193049e-01
 15         9.5960407319e-03
 16        -3.0835095231e-02
 17         5.5693781217e-02
 18         1.8695705490e-03
 19        -6.8410793071e-03
 20         1.0874844871e-02
 21        -3.0109585486e-02
 22        -9.1925248845e-02
 23         2.0120683951e-01
 24         3.3363691775e-01
 25        -5.6548648918e-01
 26        -4.2604486374e-01
 27        -3.2016039687e-04
 28        -3.5077493382e-02
 29         9.7477581814e-03
 30        -1.0666944601e-04
 31        -7.2733581276e-03
 32         1.9482180247e-03
 33         1.1426571873e-03
 34         7.8600487222e-02
 35        -2.1387654970e-02
 36        -2.4860872129e-03
 37         3.3172733780e-02
 38        -1.1475291163e-02
 39        -4.9419027056e-02
 40         2.0808902641e-02
 41        -2.5411970557e-02
 42        -3.5193193211e-02
 43         9.6275066657e-02
 44         1.2436736998e-01
 45         6.2000152074e-02
 46        -2.0191689713e-02
 47         1.4351257526e-02
 48         2.1888005256e-03
 49        -3.5662200677e-04
 50         1.2449103760e-03
 51         4.6247043044e-02
 52         1.5854190709e-02
 Sym= A
 Ene=        -9.6118717557e-01
 Spin= Alpha
 Occup=         2.0000000000e+00
  1         8.9501198395e-02
  2         1.2326714893e-01
  3        -3.7877513763e-01
  4        -2.4726763502e-01
  5         7.8540185204e-02
  6         1.4273417297e-01
  7         3.1324678638e-02
  8         3.3728428985e-02
  9        -3.8475969330e-03
 10         3.6308373079e-02
 11        -2.8641363029e-02
 12        -3.9409406726e-02
 13         1.1783237976e-01
 14         1.4618900289e-01
 15         3.5680191593e-02
 16         4.8613689941e-02
 17         2.0119576789e-01
 18         8.7933265417e-03
 19         1.7064689366e-02
 20         7.2304216372e-02
 21         1.3716500368e-02
 22         4.2132427523e-02
 23        -9.4563505095e-02
 24        -1.4741509552e-01
 25         2.4310960803e-01
 26         2.6982437496e-01
 27        -4.9827574507e-03
 28        -2.1324578485e-02
 29         3.4202851860e-03
 30        -7.4701914341e-04
 31        -2.7935253125e-03
 32         3.5038944543e-04
 33         1.1531223600e-02
 34         4.8162487673e-02
 35        -7.2698551375e-03
 36         3.0360092967e-03
 37         7.4999549518e-03
 38        -3.5434689388e-03
 39        -1.5815349137e-01
 40        -1.2947012772e-02
 41        -2.4667151191e-02
 42        -3.4286487284e-02
 43         9.5322054568e-02
 44         1.3131954122e-01
 45         3.0368981411e-01
 46        -8.9504352040e-03
 47        -2.2599020542e-02
 48         5.6108108227e-02
 49         1.9095733739e-03
 50        -1.2145049456e-02
 51         1.4892005678e-01
 52         5.5232333289e-02
 Sym= A
 Ene=        -7.8916612163e-01
 Spin= Alpha
 Occup=         2.0000000000e+00
  1         1.9697198066e-02
  2         2.7859124544e-02
  3        -8.4138364501e-02
  4        -3.9910380356e-02
  5         9.8145496322e-02
  6        -1.7638210735e-01
  7        -3.0260854917e-01
  8        -2.4742994486e-03
  9        -2.5226802650e-02
 10         2.1804682423e-02
 11        -2.8210617153e-02
 12        -3.8945937291e-02
 13         1.2218141694e-01
 14         1.4595035422e-01
 15         3.5026839227e-02
 16        -1.4359395371e-01
 17         4.2773261718e-01
 18         1.4383268059e-02
 19        -6.0058068307e-02
 20         1.7482361138e-01
 21         4.7228377673e-03
 22         1.4579999310e-02
 23        -3.3408070463e-02
 24        -4.9588708203e-02
 25         7.9159003121e-02
 26         1.1501007275e-01
 27        -2.6306971167e-03
 28        -2.1835726297e-02
 29         2.6537050120e-02
 30        -3.1535269027e-04
 31        -2.7972190262e-03
 32         2.7135778097e-03
 33         5.9160618437e-03
 34         4.8701994292e-02
 35        -5.7767649090e-02
 36         4.6816439326e-03
 37         1.9608258836e-02
 38        -4.5774188107e-02
 39         6.8267101528e-04
 40         4.3145372695e-03
 41        -1.3248320092e-02
 42        -1.8488544465e-02
 43         5.3467751650e-02
 44         6.0641309848e-02
 45        -3.5083087475e-01
 46        -4.2043800328e-02
 47        -1.0534868070e-01
 48        -1.0062418861e-01
 49        -2.4625537932e-02
 50        -5.3912065483e-02
 51        -1.6304605250e-01
 52        -5.9364953188e-02
 Sym= A
 Ene=        -7.7782042816e-01
 Spin= Alpha
 Occup=         2.0000000000e+00
  1         1.7870792262e-03
  2         2.9929814545e-03
  3        -1.6982971629e-02
  4         4.6012676843e-02
  5        -4.1899109663e-01
  6        -3.4827861398e-02
  7        -1.0089892945e-01
  8        -7.3442978424e-02
  9        -3.5751688783e-02
 10        -9.7648510076e-03
 11        -7.4089890941e-03
 12        -1.0206388185e-02
 13         3.1876293081e-02
 14         3.8558265266e-02
 15        -4.2731932355e-01
 16        -4.0824198883e-02
 17         1.2412574069e-01
 18        -1.7908990263e-01
 19        -1.3786856800e-02
 20         5.3110635084e-02
 21        -6.8076409190e-05
 22        -1.6512538112e-04
 23        -1.8637936121e-05
 24         2.2308885012e-03
 25        -8.3848974376e-03
 26         1.6260798035e-02
 27         2.5143198784e-02
 28         1.1019447716e-03
 29         7.8544935742e-03
 30         2.8800288722e-03
 31        -1.1161827605e-04
 32         9.2807798530e-04
 33        -5.6698542868e-02
 34        -8.2676165472e-04
 35        -1.7942875435e-02
 36        -3.3614250418e-02
 37        -7.5408661077e-03
 38        -1.0240922345e-02
 39         1.5860777592e-01
 40         5.2109527373e-02
 41        -1.7285366584e-02
 42        -2.4045357065e-02
 43         7.1494928843e-02
 44         9.9870818339e-02
 45         2.0601132431e-01
 46        -1.3503435448e-01
 47        -1.6005804848e-01
 48         6.3109421648e-02
 49        -3.8496484512e-02
 50        -6.2528748579e-02
 51         7.7894096396e-02
 52         4.3954213131e-02
 Sym= A
 Ene=        -7.2726515131e-01
 Spin= Alpha
 Occup=         2.0000000000e+00
  1         1.4329630521e-02
  2         1.9388284813e-02
  3        -4.6414774435e-02
  4        -1.1580834252e-01
  5        -3.1801386413e-02
  6        -2.0967125114e-01
  7         1.8253396764e-01
  8        -1.0830678711e-02
  9        -5.6486656900e-02
 10         2.6362191750e-03
 11         8.1996090299e-03
 12         1.1490057589e-02
 13        -4.0006002899e-02
 14        -2.7510452696e-02
 15         1.1152542212e-02
 16        -5.4343808079e-01
 17        -1.8501835540e-01
 18         9.4753457730e-03
 19        -2.4758045246e-01
 20        -8.3763265682e-02
 21         8.4032858198e-03
 22         2.5919170162e-02
 23        -5.9225236272e-02
 24        -8.9832409938e-02
 25         1.4694159841e-01
 26         2.1117363656e-01
 27         5.1609770160e-03
 28        -6.6365507713e-02
 29         2.1070357751e-02
 30         3.5789841521e-04
 31        -7.0081218342e-03
 32         1.9466669580e-03
 33        -1.0769605741e-02
 34         1.4272084755e-01
 35        -4.3978969051e-02
 36        -9.6724678234e-03
 37         8.6779455779e-02
 38        -3.2408548759e-02
 39        -7.0615528073e-03
 40         1.1321781372e-03
 41        -2.1693676703e-03
 42        -2.8914012206e-03
 43         6.9219179726e-03
 44         2.0635902655e-02
 45         3.2733344723e-02
 46        -1.7725948035e-01
 47         1.6460270293e-01
 48         9.6406680571e-03
 49        -6.5834500668e-02
 50         7.9369671931e-02
 51         8.6584847918e-03
 52         1.1895567386e-02
 Sym= A
 Ene=        -6.5520136440e-01
 Spin= Alpha
 Occup=         2.0000000000e+00
  1         2.1980546453e-02
  2         2.9819233553e-02
  3        -7.6903906985e-02
  4        -1.5207636628e-01
  5         8.4521819050e-02
  6        -8.6148790865e-02
  7         1.7832182459e-01
  8        -1.9586752113e-02
  9        -1.3008655667e-02
 10         1.4703256604e-02
 11         4.4718528637e-03
 12         6.3816266164e-03
 13        -2.5677193026e-02
 14        -2.5623532336e-03
 15        -2.4075970417e-01
 16         3.6687964578e-01
 17        -1.8185820971e-01
 18        -1.1577813697e-01
 19         1.8890207399e-01
 20        -9.4764629638e-02
 21         4.4531778330e-03
 22         1.3792550923e-02
 23        -3.2041343467e-02
 24        -4.6404895531e-02
 25         7.4588929182e-02
 26         1.2532524883e-01
 27         3.5459087776e-03
 28        -6.6186101717e-02
 29        -1.2749864675e-02
 30         3.0228096478e-04
 31        -7.0728279550e-03
 32        -6.0873925018e-04
 33        -8.0108571066e-03
 34         1.4435528642e-01
 35         2.7057017866e-02
 36        -4.2738792754e-03
 37         1.0366795492e-01
 38         3.8014846100e-02
 39        -9.7678077097e-02
 40        -6.6146138304e-02
 41        -3.1521401351e-02
 42        -4.3992463346e-02
 43         1.2833071919e-01
 44         2.0256160074e-01
 45        -2.2776308729e-01
 46        -3.3822730718e-01
 47        -1.2009982115e-02
 48        -1.1263960254e-01
 49        -1.6439728211e-01
 50        -1.8719589461e-02
 51        -1.3230323960e-01
 52        -3.4303623193e-02
 Sym= A
 Ene=        -6.3609770124e-01
 Spin= Alpha
 Occup=         2.0000000000e+00
  1         8.5842127156e-04
  2         9.2084366729e-04
  3         3.9769522943e-03
  4        -5.3921692395e-02
  5         2.7611962100e-01
  6         5.2484745808e-02
  7         2.1641060811e-02
  8         3.3073655484e-03
  9         1.3305945756e-02
 10         2.0987854012e-02
 11        -2.4892728803e-04
 12        -4.2520558071e-04
 13         2.3248908394e-03
 14        -2.1213760587e-03
 15        -5.6209007418e-01
 16        -1.6159323183e-01
 17        -3.3332989884e-02