    -----------------------------------------------------------------------
          PSI4: An Open-Source Ab Initio Electronic Structure Package
                              PSI 4.0.0-beta3+ Driver

               Git: Rev {master} e0784c51b6071a6781a1de5f5076a0aae9945f2d

    J. M. Turney, A. C. Simmonett, R. M. Parrish, E. G. Hohenstein,
    F. A. Evangelista, J. T. Fermann, B. J. Mintz, L. A. Burns, J. J. Wilke,
    M. L. Abrams, N. J. Russ, M. L. Leininger, C. L. Janssen, E. T. Seidl,
    W. D. Allen, H. F. Schaefer, R. A. King, E. F. Valeev, C. D. Sherrill,
    and T. D. Crawford, WIREs Comput. Mol. Sci., (2011) (doi: 10.1002/wcms.93)

                         Additional Contributions by
    A. E. DePrince, M. Saitow, U. Bozkaya, A. Yu. Sokolov
    -----------------------------------------------------------------------

    Process ID:  21058
    PSI4DATADIR: /home/rking/psi4/lib

    Using LocalCommunicator (Number of processes = 1)

    Memory level set to 256.000 MB

  ==> Input File <==

--------------------------------------------------------------------------
#! Various constrained energy minimizations of HOOH with cc-pvdz RHF.
#! For the "frozen" bonds, angles and dihedrals, these coordinates are
#! constrained to remain at their initial values.  For "fixed" bonds,
#! angles, or dihedrals, the equilibrium (final) value of the coordinate
#! is provided by the user.

# Minimized energy with OH bonds at 0.950 Angstroms. # TEST
OH_950_stre       = -150.78666731                    # TEST
# Minimized energy with OOH angles at 105.0 degrees. # TEST
OOH_105_bend      = -150.78617685                    # TEST
# Minimized energy with HOOH torsion at 120.0 degrees. # TEST
HOOH_120_dihedral = -150.78664695                      # TEST

set globals {
  diis false
  basis cc-pvdz
}

# Constrained minimization with O-H bonds frozen from start to 0.950 Angstroms.
molecule { 
  H 
  O 1 0.950
  O 2 1.400 1 100.0
  H 3 0.950 2 100.0 1 115.0
} 
  
set optking {
  frozen_distance = ("
    1  2
    3  4
  ")
}
thisenergy = optimize('scf')
compare_values(OH_950_stre , thisenergy, 6, "RHF energy of HOOH with O-H bonds frozen")  #TEST

# Constrained minimization with O-H bonds fixed to reach equilibrium at 0.950 Angstroms.
molecule {
  H
  O 1 0.90
  O 2 1.40 1 100.0 
  H 3 0.90 2 100.0 1 115.0
}

set optking {
  frozen_distance = "" # Need to zero out previously used constraints.
  fixed_distance = ("
    1  2 0.950
    3  4 0.950
  ")
}
thisenergy = optimize('scf')
compare_values(OH_950_stre , thisenergy, 6, "RHF energy of HOOH with O-H bonds fixed")  #TEST

# Constrained minimization with O-O-H bonds frozen from start at 105.0 degrees.
molecule {
  H
  O 1 0.90
  O 2 1.40 1 105.0
  H 3 0.90 2 105.0 1 115.0
}

set optking {
  fixed_distance = (" ")
  frozen_bend = ("
    1 2 3
    2 3 4
  ")
}
thisenergy = optimize('scf')
compare_values(OOH_105_bend , thisenergy, 6, "RHF energy of HOOH with OOH bends frozen") #TEST

# Constrained minimization with O-O-H angles fixed to reach eq. at 105.0 degrees.
molecule {
  H
  O 1 0.90
  O 2 1.40 1 100.0
  H 3 0.90 2 100.0 1 115.0
}

set optking {
  frozen_bend = ""
  fixed_bend = ("
    1 2 3 105.0
    2 3 4 105.0
  ")
}
thisenergy = optimize('scf')
compare_values(OOH_105_bend , thisenergy, 6, "RHF energy of HOOH with OOH bends fixed") #TEST

# Constrained minimization with H-O-O-H dihedral frozen from start to 120.0 degrees.
molecule {
  H
  O 1 0.90
  O 2 1.40 1 100.0
  H 3 0.90 2 100.0 1 120.0
}

set optking {
  fixed_bend = ""
  frozen_dihedral = ("
    1 2 3 4
  ")
}
thisenergy = optimize('scf')
compare_values(HOOH_120_dihedral , thisenergy, 6, "RHF energy of HOOH with dihedral frozen") #TEST

# Constrained minimization with H-O-O-H dihedral fixed to 120.0 degrees.
molecule {
  H
  O 1 0.90
  O 2 1.40 1 100.0
  H 3 0.90 2 100.0 1 115.0
}

set optking {
  frozen_dihedral = ""
  fixed_dihedral = ("
    1 2 3 4 120.0
  ")
}
thisenergy = optimize('scf')
compare_values(HOOH_120_dihedral , thisenergy, 6, "RHF energy of HOOH with dihedral fixed") #TEST

--------------------------------------------------------------------------

No DF_BASIS_SCF auxiliary basis selected, defaulting to cc-pvdz-jkfit


*** tstart() called on bsp-chem-h1.its.bethel.edu
*** at Wed Apr 10 14:54:30 2013

	There are an even number of electrons - assuming singlet.
	Specify the multiplicity with the MULTP option in the
	input if this is incorrect


         ---------------------------------------------------------
                                   SCF
            by Justin Turney, Rob Parrish, and Andy Simmonett
                              RHF Reference
                        1 Threads,    256 MiB Core
         ---------------------------------------------------------

  ==> Geometry <==

    Molecular point group: c2
    Full point group: C2

    Geometry (in Angstrom), charge = 0, multiplicity = 1:

       Center              X                  Y                   Z       
    ------------   -----------------  -----------------  -----------------
           H          0.907698682080     0.739491729210     0.472883988678
           O          0.102966517591     0.692385655726    -0.029795990313
           O         -0.102966517591    -0.692385655726    -0.029795990313
           H         -0.907698682080    -0.739491729210     0.472883988678

  Running in c2 symmetry.

  Nuclear repulsion =   37.973107119176490

  Charge       = 0
  Multiplicity = 1
  Electrons    = 18
  Nalpha       = 9
  Nbeta        = 9

  ==> Algorithm <==

  SCF Algorithm Type is DF.
  DIIS disabled.
  MOM disabled.
  Fractional occupation disabled.
  Guess Type is CORE.
  Energy threshold   = 1.00e-08
  Density threshold  = 1.00e-06
  Integral threshold = 0.00e+00

  ==> Primary Basis <==

  Basis Set: CC-PVDZ
    Number of shells: 18
    Number of basis function: 38
    Number of Cartesian functions: 40
    Spherical Harmonics?: true
    Max angular momentum: 2

  ==> Pre-Iterations <==

   -------------------------------------------------------
    Irrep   Nso     Nmo     Nalpha   Nbeta   Ndocc  Nsocc
   -------------------------------------------------------
     A         19      19       0       0       0       0
     B         19      19       0       0       0       0
   -------------------------------------------------------
    Total      38      38       9       9       9       0
   -------------------------------------------------------

  ==> Integral Setup <==

 OEINTS: Wrapper to libmints.
   by Justin Turney

   Calculation information:
      Number of atoms:                   4
      Number of AO shells:              18
      Number of SO shells:               9
      Number of primitives:             54
      Number of atomic orbitals:        40
      Number of basis functions:        38

      Number of irreps:                  2
      Number of functions per irrep: [  19   19 ]

      Overlap, kinetic, potential, dipole, and quadrupole integrals
        stored in file 35.

  ==> DFJK: Density-Fitted J/K Matrices <==

    J tasked:                  Yes
    K tasked:                  Yes
    wK tasked:                  No
    OpenMP threads:              1
    Integrals threads:           1
    Memory (MB):               183
    Algorithm:                Core
    Integral Cache:           NONE
    Schwarz Cutoff:          0E+00
    Fitting Condition:       1E-12

   => Auxiliary Basis Set <=

  Basis Set: cc-pvdz-jkfit
    Number of shells: 66
    Number of basis function: 186
    Number of Cartesian functions: 212
    Spherical Harmonics?: true
    Max angular momentum: 3

  Minimum eigenvalue in the overlap matrix is 2.2406201178E-02.
  Using Symmetric Orthogonalization.
  SCF Guess: Core (One-Electron) Hamiltonian.

  Initial RHF energy:  -114.38754425087203

  ==> Iterations <==

                        Total Energy        Delta E     Density RMS

   @RHF iter   1:  -139.26076842861144   -2.48732e+01   0.00000e+00 
   @RHF iter   2:  -142.48521320197435   -3.22444e+00   2.56231e-01 
   @RHF iter   3:  -148.08318945821881   -5.59798e+00   2.31798e-01 
   @RHF iter   4:  -149.91810068857174   -1.83491e+00   6.82667e-02 
   @RHF iter   5:  -150.57427882818055   -6.56178e-01   3.84900e-02 
   @RHF iter   6:  -150.73609520765024   -1.61816e-01   1.78822e-02 
   @RHF iter   7:  -150.77488428441515   -3.87891e-02   8.86357e-03 
   @RHF iter   8:  -150.78364466209180   -8.76038e-03   4.15979e-03 
   @RHF iter   9:  -150.78564364046017   -1.99898e-03   1.99927e-03 
   @RHF iter  10:  -150.78609581336079   -4.52173e-04   9.48580e-04 
   @RHF iter  11:  -150.78619867916373   -1.02866e-04   4.51506e-04 
   @RHF iter  12:  -150.78622210936459   -2.34302e-05   2.16043e-04 
   @RHF iter  13:  -150.78622748036597   -5.37100e-06   1.02559e-04 
   @RHF iter  14:  -150.78622872233808   -1.24197e-06   4.95165e-05 
   @RHF iter  15:  -150.78622901402846   -2.91690e-07   2.35891e-05 
   @RHF iter  16:  -150.78622908425163   -7.02232e-08   1.15887e-05 
   @RHF iter  17:  -150.78622910182224   -1.75706e-08   5.61111e-06 
   @RHF iter  18:  -150.78622910646746   -4.64522e-09   2.86399e-06 
   @RHF iter  19:  -150.78622910778549   -1.31803e-09   1.44823e-06 

  ==> Post-Iterations <==

	Orbital Energies (a.u.)
	-----------------------

	Doubly Occupied:                                                      

	   1A    -20.617991     1B    -20.617660     2A     -1.497484  
	   2B     -1.203254     3A     -0.718269     3B     -0.715031  
	   4A     -0.613977     5A     -0.507492     4B     -0.468420  

	Virtual:                                                              

	   6A      0.190765     5B      0.202402     6B      0.339557  
	   7B      0.836147     7A      0.837503     8B      1.117001  
	   8A      1.137814     9A      1.152363     9B      1.209984  
	  10B      1.280774    10A      1.335385    11B      1.464750  
	  11A      1.510395    12B      1.651668    12A      1.675352  
	  13A      1.971230    13B      2.004837    14A      2.472227  
	  14B      2.476814    15A      2.731499    16A      2.821672  
	  15B      2.880075    17A      3.254837    16B      3.310218  
	  17B      3.508146    18A      3.604254    18B      3.909372  
	  19A      3.957948    19B      4.291161  

	Final Occupation by Irrep:
	          A     B 
	DOCC [     5,    4 ]

  Energy converged.

  @RHF Final Energy:  -150.78622910778549

   => Energetics <=

    Nuclear Repulsion Energy =             37.9731071191764897
    One-Electron Energy =                -283.5995160236345782
    Two-Electron Energy =                  94.8401797966724871
    DFT Exchange-Correlation Energy =       0.0000000000000000
    Empirical Dispersion Energy =           0.0000000000000000
    Total Energy =                       -150.7862291077856014


Properties computed using the SCF density matrix


Properties will be evaluated at   0.000000,   0.000000,   0.000000 Bohr
  ==> Properties <==

  Nuclear Dipole Moment: (a.u.)
     X:     0.0000      Y:     0.0000      Z:     0.8863

  Electronic Dipole Moment: (a.u.)
     X:     0.0000      Y:     0.0000      Z:    -0.1388

  Dipole Moment: (a.u.)
     X:     0.0000      Y:     0.0000      Z:     0.7475     Total:     0.7475

  Dipole Moment: (Debye)
     X:     0.0000      Y:     0.0000      Z:     1.9001     Total:     1.9001


  Saving occupied orbitals to File 180.

*** tstop() called on bsp-chem-h1.its.bethel.edu at Wed Apr 10 14:54:30 2013
Module time:
	user time   =       0.17 seconds =       0.00 minutes
	system time =       0.01 seconds =       0.00 minutes
	total time  =          0 seconds =       0.00 minutes
Total time:
	user time   =       0.17 seconds =       0.00 minutes
	system time =       0.01 seconds =       0.00 minutes
	total time  =          0 seconds =       0.00 minutes

No DF_BASIS_SCF auxiliary basis selected, defaulting to cc-pvdz-jkfit


*** tstart() called on bsp-chem-h1.its.bethel.edu
*** at Wed Apr 10 14:54:30 2013


         ------------------------------------------------------------
                                   SCF GRAD                          
                          Rob Parrish, Justin Turney,                
                       Andy Simmonett, and Alex Sokolov              
         ------------------------------------------------------------

  ==> Geometry <==

    Molecular point group: c2
    Full point group: C2

    Geometry (in Angstrom), charge = 0, multiplicity = 1:

       Center              X                  Y                   Z       
    ------------   -----------------  -----------------  -----------------
           H          0.907698682080     0.739491729210     0.472883988678
           O          0.102966517591     0.692385655726    -0.029795990313
           O         -0.102966517591    -0.692385655726    -0.029795990313
           H         -0.907698682080    -0.739491729210     0.472883988678

  Nuclear repulsion =   37.973107119176490

  ==> Basis Set <==

  Basis Set: CC-PVDZ
    Number of shells: 18
    Number of basis function: 38
    Number of Cartesian functions: 40
    Spherical Harmonics?: true
    Max angular momentum: 2

  ==> DFJKGrad: Density-Fitted SCF Gradients <==

    J tasked:                  Yes
    K tasked:                  Yes
    wK tasked:                  No
    OpenMP threads:              1
    Integrals threads:           1
    Memory (MB):               183
    Schwarz Cutoff:          0E+00
    Fitting Condition:       1E-12

   => Auxiliary Basis Set <=

  Basis Set: cc-pvdz-jkfit
    Number of shells: 66
    Number of basis function: 186
    Number of Cartesian functions: 212
    Spherical Harmonics?: true
    Max angular momentum: 3


  -Total Gradient:
     Atom            X                  Y                   Z
    ------   -----------------  -----------------  -----------------
       1        0.001505762452    -0.005858094507     0.002056317248
       2       -0.008394037164     0.006021248225    -0.002056317249
       3        0.008394037159    -0.006021248224    -0.002056317244
       4       -0.001505762447     0.005858094506     0.002056317244


*** tstop() called on bsp-chem-h1.its.bethel.edu at Wed Apr 10 14:54:30 2013
Module time:
	user time   =       0.26 seconds =       0.00 minutes
	system time =       0.01 seconds =       0.00 minutes
	total time  =          0 seconds =       0.00 minutes
Total time:
	user time   =       0.43 seconds =       0.01 minutes
	system time =       0.02 seconds =       0.00 minutes
	total time  =          0 seconds =       0.00 minutes

			-----------------------------------------
			 OPTKING 2.0: for geometry optimizations 
			  - R.A. King,  Bethel University        
			-----------------------------------------

	Internal coordinates to be generated automatically.
	Detected frag with atoms:  1 2 3 4
	---Fragment 1 Bond Connectivity---
	 1 : 2
	 2 : 1 3
	 3 : 2 4
	 4 : 3

	Assuming in current code that numbering for constraints corresponds to unified fragment.
	Frozen distance atom list: 
	     1     2
	     3     4
	---Fragment 1 Geometry and Gradient---
	 H           1.7153019203        1.3974368457        0.8936212312
	 O           0.1945785191        1.3084192677       -0.0563062615
	 O          -0.1945785191       -1.3084192677       -0.0563062615
	 H          -1.7153019203       -1.3974368457        0.8936212312
	             0.0015057625       -0.0058580945        0.0020563172
	            -0.0083940372        0.0060212482       -0.0020563172
	             0.0083940372       -0.0060212482       -0.0020563172
	            -0.0015057624        0.0058580945        0.0020563172

	Previous optimization step data not found.  Starting new optimization.

	---Fragment 1 Intrafragment Coordinates---
	 - Coordinate -           - BOHR/RAD -       - ANG/DEG -
	*R(1,2)           =         1.795240	       0.950000
	 R(2,3)           =         2.645617	       1.400000
	*R(3,4)           =         1.795240	       0.950000
	 B(1,2,3)         =         1.745329	     100.000000
	 B(2,3,4)         =         1.745329	     100.000000
	 D(1,2,3,4)       =         2.007129	     115.000000

	Current energy   :      -150.7862291078

	Generating empirical Hessian (Schlegel '84) for each fragment.
	Going to follow RFO solution 1.
	Projected energy change by RFO approximation:        -0.0008128557

	Back-transformation to cartesian coordinates...
	Successfully converged to displaced geometry.

	Back-transformation to cartesian coordinates to adjust frozen coordinates...
	Successfully converged to displaced geometry.

	---Internal Coordinate Step in ANG or DEG, aJ/ANG or AJ/DEG ---
	 ----------------------------------------------------------------------
	 Coordinate             Previous        Force       Change         New 
	 ----------             --------       ------       ------       ------
	 *R(1,2)         =      0.950000    -0.000000     0.000000     0.950000
	 R(2,3)          =      1.400000     0.007022     0.000985     1.400985
	 *R(3,4)         =      0.950000    -0.000000     0.000000     0.950000
	 B(1,2,3)        =    100.000000     0.000823     3.834280   103.834280
	 B(2,3,4)        =    100.000000     0.000823     3.834280   103.834280
	 D(1,2,3,4)      =    115.000000     0.000015    12.148089   127.148089
	 ----------------------------------------------------------------------

  ==> Convergence Check <==

  Measures of convergence in internal coordinates in au.
  Criteria marked as inactive (o), active & met (*), and active & unmet ( ).
  --------------------------------------------------------------------------------------------- ~
   Step     Total Energy     Delta E     MAX Force     RMS Force      MAX Disp      RMS Disp    ~
  --------------------------------------------------------------------------------------------- ~
    Convergence Criteria    1.00e-06 *    3.00e-04 *             o    1.20e-03 *             o  ~
  --------------------------------------------------------------------------------------------- ~
      1    -150.78622911   -1.51e+02      1.08e-02      6.26e-03 o    2.12e-01      9.48e-02 o  ~
  ---------------------------------------------------------------------------------------------

	Writing optimization data to binary file.
	Structure for next step:
	Cartesian Geometry (in Angstrom)
	    H     0.9606670214   0.7874164508   0.4268062019
	    O     0.1092861676   0.6919150376   0.0162818303
	    O    -0.1092861676  -0.6919150376   0.0162818303
	    H    -0.9606670214  -0.7874164508   0.4268062019
			--------------------------
			 OPTKING Finished Execution 
			--------------------------

    Structure for next step:
    Molecular point group: c2
    Full point group: C2

    Geometry (in Angstrom), charge = 0, multiplicity = 1:

    H       
    O             1    0.950000
    O             2    1.400985      1  103.834280
    H             3    0.950000      2  103.834280      1  127.148089


No DF_BASIS_SCF auxiliary basis selected, defaulting to cc-pvdz-jkfit


*** tstart() called on bsp-chem-h1.its.bethel.edu
*** at Wed Apr 10 14:54:30 2013

	There are an even number of electrons - assuming singlet.
	Specify the multiplicity with the MULTP option in the
	input if this is incorrect


         ---------------------------------------------------------
                                   SCF
            by Justin Turney, Rob Parrish, and Andy Simmonett
                              RHF Reference
                        1 Threads,    256 MiB Core
         ---------------------------------------------------------

  ==> Geometry <==

    Molecular point group: c2
    Full point group: C2

    Geometry (in Angstrom), charge = 0, multiplicity = 1:

       Center              X                  Y                   Z       
    ------------   -----------------  -----------------  -----------------
           H          1.006445675581     0.727992211179     0.386190808479
           O          0.150852653863     0.684056494452    -0.024333531825
           O         -0.150852653863    -0.684056494452    -0.024333531825
           H         -1.006445675581    -0.727992211179     0.386190808479

  Running in c2 symmetry.

  Nuclear repulsion =   37.823999369768309

  Charge       = 0
  Multiplicity = 1
  Electrons    = 18
  Nalpha       = 9
  Nbeta        = 9

  ==> Algorithm <==

  SCF Algorithm Type is DF.
  DIIS disabled.
  MOM disabled.
  Fractional occupation disabled.
  Guess Type is READ.
  Energy threshold   = 1.00e-08
  Density threshold  = 1.00e-06
  Integral threshold = 0.00e+00

  ==> Primary Basis <==

  Basis Set: CC-PVDZ
    Number of shells: 18
    Number of basis function: 38
    Number of Cartesian functions: 40
    Spherical Harmonics?: true
    Max angular momentum: 2

  ==> Pre-Iterations <==

   -------------------------------------------------------
    Irrep   Nso     Nmo     Nalpha   Nbeta   Ndocc  Nsocc
   -------------------------------------------------------
     A         19      19       0       0       0       0
     B         19      19       0       0       0       0
   -------------------------------------------------------
    Total      38      38       9       9       9       0
   -------------------------------------------------------

  ==> Integral Setup <==

 OEINTS: Wrapper to libmints.
   by Justin Turney

   Calculation information:
      Number of atoms:                   4
      Number of AO shells:              18
      Number of SO shells:               9
      Number of primitives:             54
      Number of atomic orbitals:        40
      Number of basis functions:        38

      Number of irreps:                  2
      Number of functions per irrep: [  19   19 ]

      Overlap, kinetic, potential, dipole, and quadrupole integrals
        stored in file 35.

  ==> DFJK: Density-Fitted J/K Matrices <==

    J tasked:                  Yes
    K tasked:                  Yes
    wK tasked:                  No
    OpenMP threads:              1
    Integrals threads:           1
    Memory (MB):               183
    Algorithm:                Core
    Integral Cache:           NONE
    Schwarz Cutoff:          0E+00
    Fitting Condition:       1E-12

   => Auxiliary Basis Set <=

  Basis Set: cc-pvdz-jkfit
    Number of shells: 66
    Number of basis function: 186
    Number of Cartesian functions: 212
    Spherical Harmonics?: true
    Max angular momentum: 3

  Minimum eigenvalue in the overlap matrix is 2.2475041884E-02.
  Using Symmetric Orthogonalization.
  SCF Guess: Projection.

  Using orbitals from previous SCF, no projection.
  Initial RHF energy:  -150.78622910778549

  ==> Iterations <==

                        Total Energy        Delta E     Density RMS

   @RHF iter   0:  -150.78370486958156    2.52424e-03   0.00000e+00 
   @RHF iter   1:  -150.78499537376032   -1.29050e-03   3.08442e-03 
   @RHF iter   2:  -150.78581969113375   -8.24317e-04   9.25149e-04 
   @RHF iter   3:  -150.78601341882265   -1.93728e-04   4.46247e-04 
   @RHF iter   4:  -150.78606732424271   -5.39054e-05   2.37513e-04 
   @RHF iter   5:  -150.78608371681494   -1.63926e-05   1.32720e-04 
   @RHF iter   6:  -150.78608908268612   -5.36587e-06   7.64020e-05 
   @RHF iter   7:  -150.78609095418170   -1.87150e-06   4.56627e-05 
   @RHF iter   8:  -150.78609164107161   -6.86890e-07   2.78226e-05 
   @RHF iter   9:  -150.78609190296163   -2.61890e-07   1.73440e-05 
   @RHF iter  10:  -150.78609200550238   -1.02541e-07   1.09072e-05 
   @RHF iter  11:  -150.78609204637078   -4.08684e-08   6.93136e-06 
   @RHF iter  12:  -150.78609206284747   -1.64767e-08   4.41732e-06 
   @RHF iter  13:  -150.78609206953897   -6.69149e-09   2.82695e-06 
   @RHF iter  14:  -150.78609207226893   -2.72996e-09   1.81018e-06 
   @RHF iter  15:  -150.78609207338602   -1.11709e-09   1.16095e-06 

  ==> Post-Iterations <==

	Orbital Energies (a.u.)
	-----------------------

	Doubly Occupied:                                                      

	   1A    -20.616317     1B    -20.615988     2A     -1.490714  
	   2B     -1.205242     3A     -0.715969     3B     -0.712104  
	   4A     -0.615925     5A     -0.510585     4B     -0.458270  

	Virtual:                                                              

	   6A      0.194049     5B      0.197337     6B      0.342923  
	   7B      0.824053     7A      0.843235     8B      1.119709  
	   8A      1.136483     9A      1.152054     9B      1.229819  
	  10B      1.279391    10A      1.336108    11B      1.484660  
	  11A      1.523279    12B      1.643227    12A      1.704921  
	  13A      1.933463    13B      2.040210    14A      2.466400  
	  14B      2.474322    15A      2.688622    16A      2.811927  
	  15B      2.900416    17A      3.268205    16B      3.292713  
	  17B      3.492356    18A      3.605594    18B      3.945621  
	  19A      3.966679    19B      4.272966  

	Final Occupation by Irrep:
	          A     B 
	DOCC [     5,    4 ]

  Energy converged.

  @RHF Final Energy:  -150.78609207338602

   => Energetics <=

    Nuclear Repulsion Energy =             37.8239993697683090
    One-Electron Energy =                -283.3379565186958189
    Two-Electron Energy =                  94.7278650755414304
    DFT Exchange-Correlation Energy =       0.0000000000000000
    Empirical Dispersion Energy =           0.0000000000000000
    Total Energy =                       -150.7860920733861008


Properties computed using the SCF density matrix


Properties will be evaluated at   0.000000,   0.000000,   0.000000 Bohr
  ==> Properties <==

  Nuclear Dipole Moment: (a.u.)
     X:     0.0000      Y:     0.0000      Z:     0.7239

  Electronic Dipole Moment: (a.u.)
     X:     0.0000      Y:     0.0000      Z:    -0.1017

  Dipole Moment: (a.u.)
     X:     0.0000      Y:     0.0000      Z:     0.6221     Total:     0.6221

  Dipole Moment: (Debye)
     X:     0.0000      Y:     0.0000      Z:     1.5813     Total:     1.5813


  Saving occupied orbitals to File 180.

*** tstop() called on bsp-chem-h1.its.bethel.edu at Wed Apr 10 14:54:31 2013
Module time:
	user time   =       0.17 seconds =       0.00 minutes
	system time =       0.00 seconds =       0.00 minutes
	total time  =          1 seconds =       0.02 minutes
Total time:
	user time   =       0.61 seconds =       0.01 minutes
	system time =       0.02 seconds =       0.00 minutes
	total time  =          1 seconds =       0.02 minutes

No DF_BASIS_SCF auxiliary basis selected, defaulting to cc-pvdz-jkfit


*** tstart() called on bsp-chem-h1.its.bethel.edu
*** at Wed Apr 10 14:54:31 2013


         ------------------------------------------------------------
                                   SCF GRAD                          
                          Rob Parrish, Justin Turney,                
                       Andy Simmonett, and Alex Sokolov              
         ------------------------------------------------------------

  ==> Geometry <==

    Molecular point group: c2
    Full point group: C2

    Geometry (in Angstrom), charge = 0, multiplicity = 1:

       Center              X                  Y                   Z       
    ------------   -----------------  -----------------  -----------------
           H          1.006445675581     0.727992211179     0.386190808479
           O          0.150852653863     0.684056494452    -0.024333531825
           O         -0.150852653863    -0.684056494452    -0.024333531825
           H         -1.006445675581    -0.727992211179     0.386190808479

  Nuclear repulsion =   37.823999369768309

  ==> Basis Set <==

  Basis Set: CC-PVDZ
    Number of shells: 18
    Number of basis function: 38
    Number of Cartesian functions: 40
    Spherical Harmonics?: true
    Max angular momentum: 2

  ==> DFJKGrad: Density-Fitted SCF Gradients <==

    J tasked:                  Yes
    K tasked:                  Yes
    wK tasked:                  No
    OpenMP threads:              1
    Integrals threads:           1
    Memory (MB):               183
    Schwarz Cutoff:          0E+00
    Fitting Condition:       1E-12

   => Auxiliary Basis Set <=

  Basis Set: cc-pvdz-jkfit
    Number of shells: 66
    Number of basis function: 186
    Number of Cartesian functions: 212
    Spherical Harmonics?: true
    Max angular momentum: 3


  -Total Gradient:
     Atom            X                  Y                   Z
    ------   -----------------  -----------------  -----------------
       1        0.002563105328     0.005946651997    -0.000629298901
       2        0.006433517560     0.001857859894     0.000629298901
       3       -0.006433517557    -0.001857859893     0.000629298900
       4       -0.002563105331    -0.005946651998    -0.000629298900


*** tstop() called on bsp-chem-h1.its.bethel.edu at Wed Apr 10 14:54:31 2013
Module time:
	user time   =       0.26 seconds =       0.00 minutes
	system time =       0.01 seconds =       0.00 minutes
	total time  =          0 seconds =       0.00 minutes
Total time:
	user time   =       0.87 seconds =       0.01 minutes
	system time =       0.03 seconds =       0.00 minutes
	total time  =          1 seconds =       0.02 minutes

			-----------------------------------------
			 OPTKING 2.0: for geometry optimizations 
			  - R.A. King,  Bethel University        
			-----------------------------------------

	Previous internal coordinate definitions found.
	---Fragment 1 Geometry and Gradient---
	 H           1.9019066945        1.3757059060        0.7297948631
	 O           0.2850702022        1.2926794339       -0.0459837110
	 O          -0.2850702022       -1.2926794339       -0.0459837110
	 H          -1.9019066945       -1.3757059060        0.7297948631
	             0.0025631053        0.0059466520       -0.0006292989
	             0.0064335176        0.0018578599        0.0006292989
	            -0.0064335176       -0.0018578599        0.0006292989
	            -0.0025631053       -0.0059466520       -0.0006292989

	---Fragment 1 Intrafragment Coordinates---
	 - Coordinate -           - BOHR/RAD -       - ANG/DEG -
	*R(1,2)           =         1.795240	       0.950000
	 R(2,3)           =         2.647478	       1.400985
	*R(3,4)           =         1.795240	       0.950000
	 B(1,2,3)         =         1.812250	     103.834280
	 B(2,3,4)         =         1.812250	     103.834280
	 D(1,2,3,4)       =         2.219153	     127.148089

	Current energy   :      -150.7860920734

	Energy change for the previous step:
		Projected    :        -0.0008128557
		Actual       :         0.0001370344
	Energy ratio indicates iffy step: Trust radius decreased to 1.000e-01.


	Performing BFGS update with previous 1 gradient(s).
	Going to follow RFO solution 1.
	Change in coordinate exceeds step limit of    0.10000.
	Scaling displacements by    0.47500
	Projected energy change by RFO approximation:        -0.0003864781

	Back-transformation to cartesian coordinates...
	Successfully converged to displaced geometry.

	Back-transformation to cartesian coordinates to adjust frozen coordinates...
	Successfully converged to displaced geometry.

	---Internal Coordinate Step in ANG or DEG, aJ/ANG or AJ/DEG ---
	 ----------------------------------------------------------------------
	 Coordinate             Previous        Force       Change         New 
	 ----------             --------       ------       ------       ------
	 *R(1,2)         =      0.950000    -0.000000    -0.000000     0.950000
	 R(2,3)          =      1.400985    -0.078758    -0.002486     1.398500
	 *R(3,4)         =      0.950000    -0.000000     0.000000     0.950000
	 B(1,2,3)        =    103.834280    -0.000817    -0.712376   103.121904
	 B(2,3,4)        =    103.834280    -0.000817    -0.712376   103.121904
	 D(1,2,3,4)      =    127.148089    -0.000034    -5.729578   121.418511
	 ----------------------------------------------------------------------

  ==> Convergence Check <==

  Measures of convergence in internal coordinates in au.
  Criteria marked as inactive (o), active & met (*), and active & unmet ( ).
  ---------------------------------------------------------------------------------------------
   Step     Total Energy     Delta E     MAX Force     RMS Force      MAX Disp      RMS Disp   
  ---------------------------------------------------------------------------------------------
    Convergence Criteria    1.00e-06 *    3.00e-04 *             o    1.20e-03 *             o
  ---------------------------------------------------------------------------------------------
      2    -150.78609207    1.37e-04      1.07e-02      7.37e-03 o    1.00e-01      4.15e-02 o  ~
  ---------------------------------------------------------------------------------------------

	Writing optimization data to binary file.
	Structure for next step:
	Cartesian Geometry (in Angstrom)
	    H     0.9875989032   0.7161217611   0.4072505463
	    O     0.1530514534   0.6822943651  -0.0453932420
	    O    -0.1530514534  -0.6822943651  -0.0453932420
	    H    -0.9875989032  -0.7161217611   0.4072505463
			--------------------------
			 OPTKING Finished Execution 
			--------------------------

    Structure for next step:
    Molecular point group: c2
    Full point group: C2

    Geometry (in Angstrom), charge = 0, multiplicity = 1:

    H       
    O             1    0.950000
    O             2    1.398500      1  103.121904
    H             3    0.950000      2  103.121904      1  121.418511


No DF_BASIS_SCF auxiliary basis selected, defaulting to cc-pvdz-jkfit


*** tstart() called on bsp-chem-h1.its.bethel.edu
*** at Wed Apr 10 14:54:31 2013

	There are an even number of electrons - assuming singlet.
	Specify the multiplicity with the MULTP option in the
	input if this is incorrect


         ---------------------------------------------------------
                                   SCF
            by Justin Turney, Rob Parrish, and Andy Simmonett
                              RHF Reference
                        1 Threads,    256 MiB Core
         ---------------------------------------------------------

  ==> Geometry <==

    Molecular point group: c2
    Full point group: C2

    Geometry (in Angstrom), charge = 0, multiplicity = 1:

       Center              X                  Y                   Z       
    ------------   -----------------  -----------------  -----------------
           H          0.973011516090     0.735819497375     0.425813624319
           O          0.139312230342     0.685231622053    -0.026830129438
           O         -0.139312230342    -0.685231622053    -0.026830129438
           H         -0.973011516090    -0.735819497375     0.425813624319

  Running in c2 symmetry.

  Nuclear repulsion =   37.897050374696292

  Charge       = 0
  Multiplicity = 1
  Electrons    = 18
  Nalpha       = 9
  Nbeta        = 9

  ==> Algorithm <==

  SCF Algorithm Type is DF.
  DIIS disabled.
  MOM disabled.
  Fractional occupation disabled.
  Guess Type is READ.
  Energy threshold   = 1.00e-08
  Density threshold  = 1.00e-06
  Integral threshold = 0.00e+00

  ==> Primary Basis <==

  Basis Set: CC-PVDZ
    Number of shells: 18
    Number of basis function: 38
    Number of Cartesian functions: 40
    Spherical Harmonics?: true
    Max angular momentum: 2

  ==> Pre-Iterations <==

   -------------------------------------------------------
    Irrep   Nso     Nmo     Nalpha   Nbeta   Ndocc  Nsocc
   -------------------------------------------------------
     A         19      19       0       0       0       0
     B         19      19       0       0       0       0
   -------------------------------------------------------
    Total      38      38       9       9       9       0
   -------------------------------------------------------

  ==> Integral Setup <==

 OEINTS: Wrapper to libmints.
   by Justin Turney

   Calculation information:
      Number of atoms:                   4
      Number of AO shells:              18
      Number of SO shells:               9
      Number of primitives:             54
      Number of atomic orbitals:        40
      Number of basis functions:        38

      Number of irreps:                  2
      Number of functions per irrep: [  19   19 ]

      Overlap, kinetic, potential, dipole, and quadrupole integrals
        stored in file 35.

  ==> DFJK: Density-Fitted J/K Matrices <==

    J tasked:                  Yes
    K tasked:                  Yes
    wK tasked:                  No
    OpenMP threads:              1
    Integrals threads:           1
    Memory (MB):               183
    Algorithm:                Core
    Integral Cache:           NONE
    Schwarz Cutoff:          0E+00
    Fitting Condition:       1E-12

   => Auxiliary Basis Set <=

  Basis Set: cc-pvdz-jkfit
    Number of shells: 66
    Number of basis function: 186
    Number of Cartesian functions: 212
    Spherical Harmonics?: true
    Max angular momentum: 3

  Minimum eigenvalue in the overlap matrix is 2.2387365140E-02.
  Using Symmetric Orthogonalization.
  SCF Guess: Projection.

  Using orbitals from previous SCF, no projection.
  Initial RHF energy:  -150.78609207338602

  ==> Iterations <==

                        Total Energy        Delta E     Density RMS

   @RHF iter   0:  -150.78573246755246    3.59606e-04   0.00000e+00 
   @RHF iter   1:  -150.78635246166914   -6.19994e-04   1.32353e-03 
   @RHF iter   2:  -150.78645802087789   -1.05559e-04   3.38953e-04 
   @RHF iter   3:  -150.78648095498795   -2.29341e-05   1.58258e-04 
   @RHF iter   4:  -150.78648697298547   -6.01800e-06   8.19331e-05 
   @RHF iter   5:  -150.78648866764019   -1.69465e-06   4.37848e-05 
   @RHF iter   6:  -150.78648917118153   -5.03541e-07   2.39569e-05 
   @RHF iter   7:  -150.78648932890741   -1.57726e-07   1.33883e-05 
   @RHF iter   8:  -150.78648938098144   -5.20740e-08   7.69762e-06 
   @RHF iter   9:  -150.78648939903979   -1.80584e-08   4.53216e-06 
   @RHF iter  10:  -150.78648940557190   -6.53210e-09   2.73367e-06 
   @RHF iter  11:  -150.78648940801526   -2.44336e-09   1.67629e-06 
   @RHF iter  12:  -150.78648940895238   -9.37121e-10   1.04239e-06 

  ==> Post-Iterations <==

	Orbital Energies (a.u.)
	-----------------------

	Doubly Occupied:                                                      

	   1A    -20.616701     1B    -20.616369     2A     -1.493362  
	   2B     -1.204477     3A     -0.719252     3B     -0.711797  
	   4A     -0.615278     5A     -0.507884     4B     -0.462221  

	Virtual:                                                              

	   6A      0.192990     5B      0.198671     6B      0.344096  
	   7B      0.828267     7A      0.841158     8B      1.119795  
	   8A      1.139768     9A      1.152135     9B      1.224445  
	  10B      1.280370    10A      1.333948    11B      1.477314  
	  11A      1.518154    12B      1.648479    12A      1.693817  
	  13A      1.944700    13B      2.026583    14A      2.471209  
	  14B      2.474597    15A      2.703699    16A      2.818150  
	  15B      2.885734    17A      3.258415    16B      3.302640  
	  17B      3.504560    18A      3.607173    18B      3.934602  
	  19A      3.965759    19B      4.276991  

	Final Occupation by Irrep:
	          A     B 
	DOCC [     5,    4 ]

  Energy converged.

  @RHF Final Energy:  -150.78648940895238

   => Energetics <=

    Nuclear Repulsion Energy =             37.8970503746962919
    One-Electron Energy =                -283.4723956732034367
    Two-Electron Energy =                  94.7888558895547249
    DFT Exchange-Correlation Energy =       0.0000000000000000
    Empirical Dispersion Energy =           0.0000000000000000
    Total Energy =                       -150.7864894089524341


Properties computed using the SCF density matrix


Properties will be evaluated at   0.000000,   0.000000,   0.000000 Bohr
  ==> Properties <==

  Nuclear Dipole Moment: (a.u.)
     X:     0.0000      Y:    -0.0000      Z:     0.7981

  Electronic Dipole Moment: (a.u.)
     X:     0.0000      Y:     0.0000      Z:    -0.1160

  Dipole Moment: (a.u.)
     X:     0.0000      Y:    -0.0000      Z:     0.6821     Total:     0.6821

  Dipole Moment: (Debye)
     X:     0.0000      Y:    -0.0000      Z:     1.7338     Total:     1.7338


  Saving occupied orbitals to File 180.

*** tstop() called on bsp-chem-h1.its.bethel.edu at Wed Apr 10 14:54:31 2013
Module time:
	user time   =       0.16 seconds =       0.00 minutes
	system time =       0.00 seconds =       0.00 minutes
	total time  =          0 seconds =       0.00 minutes
Total time:
	user time   =       1.04 seconds =       0.02 minutes
	system time =       0.03 seconds =       0.00 minutes
	total time  =          1 seconds =       0.02 minutes

No DF_BASIS_SCF auxiliary basis selected, defaulting to cc-pvdz-jkfit


*** tstart() called on bsp-chem-h1.its.bethel.edu
*** at Wed Apr 10 14:54:31 2013


         ------------------------------------------------------------
                                   SCF GRAD                          
                          Rob Parrish, Justin Turney,                
                       Andy Simmonett, and Alex Sokolov              
         ------------------------------------------------------------

  ==> Geometry <==

    Molecular point group: c2
    Full point group: C2

    Geometry (in Angstrom), charge = 0, multiplicity = 1:

       Center              X                  Y                   Z       
    ------------   -----------------  -----------------  -----------------
           H          0.973011516090     0.735819497375     0.425813624319
           O          0.139312230342     0.685231622053    -0.026830129438
           O         -0.139312230342    -0.685231622053    -0.026830129438
           H         -0.973011516090    -0.735819497375     0.425813624319

  Nuclear repulsion =   37.897050374696292

  ==> Basis Set <==

  Basis Set: CC-PVDZ
    Number of shells: 18
    Number of basis function: 38
    Number of Cartesian functions: 40
    Spherical Harmonics?: true
    Max angular momentum: 2

  ==> DFJKGrad: Density-Fitted SCF Gradients <==

    J tasked:                  Yes
    K tasked:                  Yes
    wK tasked:                  No
    OpenMP threads:              1
    Integrals threads:           1
    Memory (MB):               183
    Schwarz Cutoff:          0E+00
    Fitting Condition:       1E-12

   => Auxiliary Basis Set <=

  Basis Set: cc-pvdz-jkfit
    Number of shells: 66
    Number of basis function: 186
    Number of Cartesian functions: 212
    Spherical Harmonics?: true
    Max angular momentum: 3


  -Total Gradient:
     Atom            X                  Y                   Z
    ------   -----------------  -----------------  -----------------
       1        0.002208213730     0.003280750447     0.000114819334
       2        0.002710785823     0.002094782796    -0.000114819333
       3       -0.002710785805    -0.002094782793    -0.000114819343
       4       -0.002208213748    -0.003280750450     0.000114819343


*** tstop() called on bsp-chem-h1.its.bethel.edu at Wed Apr 10 14:54:31 2013
Module time:
	user time   =       0.26 seconds =       0.00 minutes
	system time =       0.01 seconds =       0.00 minutes
	total time  =          0 seconds =       0.00 minutes
Total time:
	user time   =       1.30 seconds =       0.02 minutes
	system time =       0.04 seconds =       0.00 minutes
	total time  =          1 seconds =       0.02 minutes

			-----------------------------------------
			 OPTKING 2.0: for geometry optimizations 
			  - R.A. King,  Bethel University        
			-----------------------------------------

	Previous internal coordinate definitions found.
	---Fragment 1 Geometry and Gradient---
	 H           1.8387252896        1.3904973333        0.8046711336
	 O           0.2632619623        1.2949001033       -0.0507015967
	 O          -0.2632619623       -1.2949001033       -0.0507015967
	 H          -1.8387252896       -1.3904973333        0.8046711336
	             0.0022082137        0.0032807504        0.0001148193
	             0.0027107858        0.0020947828       -0.0001148193
	            -0.0027107858       -0.0020947828       -0.0001148193
	            -0.0022082137       -0.0032807505        0.0001148193

	---Fragment 1 Intrafragment Coordinates---
	 - Coordinate -           - BOHR/RAD -       - ANG/DEG -
	*R(1,2)           =         1.795240	       0.950000
	 R(2,3)           =         2.642781	       1.398500
	*R(3,4)           =         1.795240	       0.950000
	 B(1,2,3)         =         1.799817	     103.121904
	 B(2,3,4)         =         1.799817	     103.121904
	 D(1,2,3,4)       =         2.119153	     121.418511

	Current energy   :      -150.7864894090

	Energy change for the previous step:
		Projected    :        -0.0003864781
		Actual       :        -0.0003973356
	Energy ratio indicates good step: Trust radius increased to 2.000e-01.


	Performing BFGS update with previous 1 gradient(s).
	Going to follow RFO solution 1.
	Projected energy change by RFO approximation:        -0.0001901996

	Back-transformation to cartesian coordinates...
	Successfully converged to displaced geometry.

	Back-transformation to cartesian coordinates to adjust frozen coordinates...
	Successfully converged to displaced geometry.

	---Internal Coordinate Step in ANG or DEG, aJ/ANG or AJ/DEG ---
	 ----------------------------------------------------------------------
	 Coordinate             Previous        Force       Change         New 
	 ----------             --------       ------       ------       ------
	 *R(1,2)         =      0.950000     0.000000     0.000000     0.950000
	 R(2,3)          =      1.398500    -0.051468    -0.005699     1.392801
	 *R(3,4)         =      0.950000     0.000000     0.000000     0.950000
	 B(1,2,3)        =    103.121904    -0.000444    -0.722566   102.399338
	 B(2,3,4)        =    103.121904    -0.000444    -0.722566   102.399338
	 D(1,2,3,4)      =    121.418511    -0.000020    -8.516506   112.902005
	 ----------------------------------------------------------------------

  ==> Convergence Check <==

  Measures of convergence in internal coordinates in au.
  Criteria marked as inactive (o), active & met (*), and active & unmet ( ).
  ---------------------------------------------------------------------------------------------
   Step     Total Energy     Delta E     MAX Force     RMS Force      MAX Disp      RMS Disp   
  ---------------------------------------------------------------------------------------------
    Convergence Criteria    1.00e-06 *    3.00e-04 *             o    1.20e-03 *             o
  ---------------------------------------------------------------------------------------------
      3    -150.78648941   -3.97e-04      6.25e-03      4.25e-03 o    1.49e-01      6.13e-02 o  ~
  ---------------------------------------------------------------------------------------------

	Writing optimization data to binary file.
	Structure for next step:
	Cartesian Geometry (in Angstrom)
	    H     0.9442776210   0.7190225065   0.4558774039
	    O     0.1454514950   0.6810413264  -0.0568938786
	    O    -0.1454514950  -0.6810413264  -0.0568938786
	    H    -0.9442776210  -0.7190225065   0.4558774039
			--------------------------
			 OPTKING Finished Execution 
			--------------------------

    Structure for next step:
    Molecular point group: c2
    Full point group: C2

    Geometry (in Angstrom), charge = 0, multiplicity = 1:

    H       
    O             1    0.950000
    O             2    1.392801      1  102.399338
    H             3    0.950000      2  102.399338      1  112.902005


No DF_BASIS_SCF auxiliary basis selected, defaulting to cc-pvdz-jkfit


*** tstart() called on bsp-chem-h1.its.bethel.edu
*** at Wed Apr 10 14:54:31 2013

	There are an even number of electrons - assuming singlet.
	Specify the multiplicity with the MULTP option in the
	input if this is incorrect


         ---------------------------------------------------------
                                   SCF
            by Justin Turney, Rob Parrish, and Andy Simmonett
                              RHF Reference
                        1 Threads,    256 MiB Core
         ---------------------------------------------------------

  ==> Geometry <==

    Molecular point group: c2
    Full point group: C2

    Geometry (in Angstrom), charge = 0, multiplicity = 1:

       Center              X                  Y                   Z       
    ------------   -----------------  -----------------  -----------------
           H          0.922887447029     0.746278858981     0.482377100692
           O          0.125510403234     0.684996708173    -0.030394142672
           O         -0.125510403234    -0.684996708173    -0.030394142672
           H         -0.922887447029    -0.746278858981     0.482377100692

  Running in c2 symmetry.

  Nuclear repulsion =   38.036020785805640

  Charge       = 0
  Multiplicity = 1
  Electrons    = 18
  Nalpha       = 9
  Nbeta        = 9

  ==> Algorithm <==

  SCF Algorithm Type is DF.
  DIIS disabled.
  MOM disabled.
  Fractional occupation disabled.
  Guess Type is READ.
  Energy threshold   = 1.00e-08
  Density threshold  = 1.00e-06
  Integral threshold = 0.00e+00

  ==> Primary Basis <==

  Basis Set: CC-PVDZ
    Number of shells: 18
    Number of basis function: 38
    Number of Cartesian functions: 40
    Spherical Harmonics?: true
    Max angular momentum: 2

  ==> Pre-Iterations <==

   -------------------------------------------------------
    Irrep   Nso     Nmo     Nalpha   Nbeta   Ndocc  Nsocc
   -------------------------------------------------------
     A         19      19       0       0       0       0
     B         19      19       0       0       0       0
   -------------------------------------------------------
    Total      38      38       9       9       9       0
   -------------------------------------------------------

  ==> Integral Setup <==

 OEINTS: Wrapper to libmints.
   by Justin Turney

   Calculation information:
      Number of atoms:                   4
      Number of AO shells:              18
      Number of SO shells:               9
      Number of primitives:             54
      Number of atomic orbitals:        40
      Number of basis functions:        38

      Number of irreps:                  2
      Number of functions per irrep: [  19   19 ]

      Overlap, kinetic, potential, dipole, and quadrupole integrals
        stored in file 35.

  ==> DFJK: Density-Fitted J/K Matrices <==

    J tasked:                  Yes
    K tasked:                  Yes
    wK tasked:                  No
    OpenMP threads:              1
    Integrals threads:           1
    Memory (MB):               183
    Algorithm:                Core
    Integral Cache:           NONE
    Schwarz Cutoff:          0E+00
    Fitting Condition:       1E-12

   => Auxiliary Basis Set <=

  Basis Set: cc-pvdz-jkfit
    Number of shells: 66
    Number of basis function: 186
    Number of Cartesian functions: 212
    Spherical Harmonics?: true
    Max angular momentum: 3

  Minimum eigenvalue in the overlap matrix is 2.2208344728E-02.
  Using Symmetric Orthogonalization.
  SCF Guess: Projection.

  Using orbitals from previous SCF, no projection.
  Initial RHF energy:  -150.78648940895238

  ==> Iterations <==

                        Total Energy        Delta E     Density RMS

   @RHF iter   0:  -150.78561061727163    8.78792e-04   0.00000e+00 
   @RHF iter   1:  -150.78638050428867   -7.69887e-04   1.94112e-03 
   @RHF iter   2:  -150.78659761961325   -2.17115e-04   4.89542e-04 
   @RHF iter   3:  -150.78664465306264   -4.70334e-05   2.28041e-04 
   @RHF iter   4:  -150.78665699148786   -1.23384e-05   1.18251e-04 
   @RHF iter   5:  -150.78666044922613   -3.45774e-06   6.29833e-05 
   @RHF iter   6:  -150.78666146466122   -1.01544e-06   3.42958e-05 
   @RHF iter   7:  -150.78666177652684   -3.11866e-07   1.89301e-05 
   @RHF iter   8:  -150.78666187673034   -1.00203e-07   1.07341e-05 
   @RHF iter   9:  -150.78666191035239   -3.36221e-08   6.19589e-06 
   @RHF iter  10:  -150.78666192208021   -1.17278e-08   3.66632e-06 
   @RHF iter  11:  -150.78666192630567   -4.22546e-09   2.20022e-06 
   @RHF iter  12:  -150.78666192786687   -1.56120e-09   1.34207e-06 

  ==> Post-Iterations <==

	Orbital Energies (a.u.)
	-----------------------

	Doubly Occupied:                                                      

	   1A    -20.616963     1B    -20.616624     2A     -1.497987  
	   2B     -1.203016     3A     -0.725641     3B     -0.710475  
	   4A     -0.615145     5A     -0.502357     4B     -0.468261  

	Virtual:                                                              

	   6A      0.191215     5B      0.200517     6B      0.347767  
	   7B      0.833171     7A      0.838723     8B      1.120185  
	   8A      1.144759     9A      1.153634     9B      1.215459  
	  10B      1.281052    10A      1.329835    11B      1.473928  
	  11A      1.509352    12B      1.655689    12A      1.676293  
	  13A      1.959404    13B      2.010586    14B      2.474773  
	  14A      2.477673    15A      2.728268    16A      2.830439  
	  15B      2.861406    17A      3.244004    16B      3.315542  
	  17B      3.524987    18A      3.608431    18B      3.919694  
	  19A      3.968690    19B      4.282454  

	Final Occupation by Irrep:
	          A     B 
	DOCC [     5,    4 ]

  Energy converged.

  @RHF Final Energy:  -150.78666192786687

   => Energetics <=

    Nuclear Repulsion Energy =             38.0360207858056398
    One-Electron Energy =                -283.7324235130556644
    Two-Electron Energy =                  94.9097407993830302
    DFT Exchange-Correlation Energy =       0.0000000000000000
    Empirical Dispersion Energy =           0.0000000000000000
    Total Energy =                       -150.7866619278669873


Properties computed using the SCF density matrix


Properties will be evaluated at   0.000000,   0.000000,   0.000000 Bohr
  ==> Properties <==

  Nuclear Dipole Moment: (a.u.)
     X:     0.0000      Y:     0.0000      Z:     0.9041

  Electronic Dipole Moment: (a.u.)
     X:     0.0000      Y:     0.0000      Z:    -0.1372

  Dipole Moment: (a.u.)
     X:     0.0000      Y:     0.0000      Z:     0.7670     Total:     0.7670

  Dipole Moment: (Debye)
     X:     0.0000      Y:     0.0000      Z:     1.9495     Total:     1.9495


  Saving occupied orbitals to File 180.

*** tstop() called on bsp-chem-h1.its.bethel.edu at Wed Apr 10 14:54:31 2013
Module time:
	user time   =       0.15 seconds =       0.00 minutes
	system time =       0.00 seconds =       0.00 minutes
	total time  =          0 seconds =       0.00 minutes
Total time:
	user time   =       1.47 seconds =       0.02 minutes
	system time =       0.04 seconds =       0.00 minutes
	total time  =          1 seconds =       0.02 minutes

No DF_BASIS_SCF auxiliary basis selected, defaulting to cc-pvdz-jkfit


*** tstart() called on bsp-chem-h1.its.bethel.edu
*** at Wed Apr 10 14:54:31 2013


         ------------------------------------------------------------
                                   SCF GRAD                          
                          Rob Parrish, Justin Turney,                
                       Andy Simmonett, and Alex Sokolov              
         ------------------------------------------------------------

  ==> Geometry <==

    Molecular point group: c2
    Full point group: C2

    Geometry (in Angstrom), charge = 0, multiplicity = 1:

       Center              X                  Y                   Z       
    ------------   -----------------  -----------------  -----------------
           H          0.922887447029     0.746278858981     0.482377100692
           O          0.125510403234     0.684996708173    -0.030394142672
           O         -0.125510403234    -0.684996708173    -0.030394142672
           H         -0.922887447029    -0.746278858981     0.482377100692

  Nuclear repulsion =   38.036020785805640

  ==> Basis Set <==

  Basis Set: CC-PVDZ
    Number of shells: 18
    Number of basis function: 38
    Number of Cartesian functions: 40
    Spherical Harmonics?: true
    Max angular momentum: 2

  ==> DFJKGrad: Density-Fitted SCF Gradients <==

    J tasked:                  Yes
    K tasked:                  Yes
    wK tasked:                  No
    OpenMP threads:              1
    Integrals threads:           1
    Memory (MB):               183
    Schwarz Cutoff:          0E+00
    Fitting Condition:       1E-12

   => Auxiliary Basis Set <=

  Basis Set: cc-pvdz-jkfit
    Number of shells: 66
    Number of basis function: 186
    Number of Cartesian functions: 212
    Spherical Harmonics?: true
    Max angular momentum: 3


  -Total Gradient:
     Atom            X                  Y                   Z
    ------   -----------------  -----------------  -----------------
       1        0.001550948798     0.000066060660     0.001216794871
       2       -0.001572372841     0.000173372006    -0.001216794869
       3        0.001572372874    -0.000173371997    -0.001216794892
       4       -0.001550948830    -0.000066060668     0.001216794891


*** tstop() called on bsp-chem-h1.its.bethel.edu at Wed Apr 10 14:54:32 2013
Module time:
	user time   =       0.25 seconds =       0.00 minutes
	system time =       0.01 seconds =       0.00 minutes
	total time  =          1 seconds =       0.02 minutes
Total time:
	user time   =       1.73 seconds =       0.03 minutes
	system time =       0.05 seconds =       0.00 minutes
	total time  =          2 seconds =       0.03 minutes

			-----------------------------------------
			 OPTKING 2.0: for geometry optimizations 
			  - R.A. King,  Bethel University        
			-----------------------------------------

	Previous internal coordinate definitions found.
	---Fragment 1 Geometry and Gradient---
	 H           1.7440045264        1.4102626622        0.9115606131
	 O           0.2371802889        1.2944561804       -0.0574366057
	 O          -0.2371802889       -1.2944561804       -0.0574366057
	 H          -1.7440045264       -1.4102626622        0.9115606131
	             0.0015509488        0.0000660607        0.0012167949
	            -0.0015723728        0.0001733720       -0.0012167949
	             0.0015723729       -0.0001733720       -0.0012167949
	            -0.0015509488       -0.0000660607        0.0012167949

	---Fragment 1 Intrafragment Coordinates---
	 - Coordinate -           - BOHR/RAD -       - ANG/DEG -
	*R(1,2)           =         1.795240	       0.950000
	 R(2,3)           =         2.632012	       1.392801
	*R(3,4)           =         1.795240	       0.950000
	 B(1,2,3)         =         1.787206	     102.399338
	 B(2,3,4)         =         1.787206	     102.399338
	 D(1,2,3,4)       =         1.970512	     112.902005

	Current energy   :      -150.7866619279

	Energy change for the previous step:
		Projected    :        -0.0001901996
		Actual       :        -0.0001725189
	Energy ratio indicates good step: Trust radius increased to 4.000e-01.


	Performing BFGS update with previous 1 gradient(s).
	Going to follow RFO solution 1.
	Projected energy change by RFO approximation:        -0.0000112218

	Back-transformation to cartesian coordinates...
	Successfully converged to displaced geometry.

	Back-transformation to cartesian coordinates to adjust frozen coordinates...
	Successfully converged to displaced geometry.

	---Internal Coordinate Step in ANG or DEG, aJ/ANG or AJ/DEG ---
	 ----------------------------------------------------------------------
	 Coordinate             Previous        Force       Change         New 
	 ----------             --------       ------       ------       ------
	 *R(1,2)         =      0.950000     0.000000     0.000000     0.950000
	 R(2,3)          =      1.392801    -0.001901    -0.000694     1.392107
	 *R(3,4)         =      0.950000     0.000000     0.000000     0.950000
	 B(1,2,3)        =    102.399338     0.000011    -0.253423   102.145915
	 B(2,3,4)        =    102.399338     0.000011    -0.253423   102.145915
	 D(1,2,3,4)      =    112.902005     0.000005     4.323095   117.225100
	 ----------------------------------------------------------------------

  ==> Convergence Check <==

  Measures of convergence in internal coordinates in au.
  Criteria marked as inactive (o), active & met (*), and active & unmet ( ).
  ---------------------------------------------------------------------------------------------
   Step     Total Energy     Delta E     MAX Force     RMS Force      MAX Disp      RMS Disp   
  ---------------------------------------------------------------------------------------------
    Convergence Criteria    1.00e-06 *    3.00e-04 *             o    1.20e-03 *             o
  ---------------------------------------------------------------------------------------------
      4    -150.78666193   -1.73e-04      3.10e-04      1.78e-04 o    7.55e-02      3.09e-02 o  ~
  ---------------------------------------------------------------------------------------------

	Writing optimization data to binary file.
	Structure for next step:
	Cartesian Geometry (in Angstrom)
	    H     0.9331002665   0.7487323725   0.4678444198
	    O     0.1178742566   0.6860000511  -0.0158614273
	    O    -0.1178742566  -0.6860000511  -0.0158614273
	    H    -0.9331002665  -0.7487323725   0.4678444198
			--------------------------
			 OPTKING Finished Execution 
			--------------------------

    Structure for next step:
    Molecular point group: c2
    Full point group: C2

    Geometry (in Angstrom), charge = 0, multiplicity = 1:

    H       
    O             1    0.950000
    O             2    1.392107      1  102.145915
    H             3    0.950000      2  102.145915      1  117.225100


No DF_BASIS_SCF auxiliary basis selected, defaulting to cc-pvdz-jkfit


*** tstart() called on bsp-chem-h1.its.bethel.edu
*** at Wed Apr 10 14:54:32 2013

	There are an even number of electrons - assuming singlet.
	Specify the multiplicity with the MULTP option in the
	input if this is incorrect


         ---------------------------------------------------------
                                   SCF
            by Justin Turney, Rob Parrish, and Andy Simmonett
                              RHF Reference
                        1 Threads,    256 MiB Core
         ---------------------------------------------------------

  ==> Geometry <==

    Molecular point group: c2
    Full point group: C2

    Geometry (in Angstrom), charge = 0, multiplicity = 1:

       Center              X                  Y                   Z       
    ------------   -----------------  -----------------  -----------------
           H          0.941672787598     0.737921686521     0.455034499873
           O          0.125777601242     0.684595012737    -0.028671310247
           O         -0.125777601242    -0.684595012737    -0.028671310247
           H         -0.941672787598    -0.737921686521     0.455034499873

  Running in c2 symmetry.

  Nuclear repulsion =   38.055569656177283

  Charge       = 0
  Multiplicity = 1
  Electrons    = 18
  Nalpha       = 9
  Nbeta        = 9

  ==> Algorithm <==

  SCF Algorithm Type is DF.
  DIIS disabled.
  MOM disabled.
  Fractional occupation disabled.
  Guess Type is READ.
  Energy threshold   = 1.00e-08
  Density threshold  = 1.00e-06
  Integral threshold = 0.00e+00

  ==> Primary Basis <==

  Basis Set: CC-PVDZ
    Number of shells: 18
    Number of basis function: 38
    Number of Cartesian functions: 40
    Spherical Harmonics?: true
    Max angular momentum: 2

  ==> Pre-Iterations <==

   -------------------------------------------------------
    Irrep   Nso     Nmo     Nalpha   Nbeta   Ndocc  Nsocc
   -------------------------------------------------------
     A         19      19       0       0       0       0
     B         19      19       0       0       0       0
   -------------------------------------------------------
    Total      38      38       9       9       9       0
   -------------------------------------------------------

  ==> Integral Setup <==

 OEINTS: Wrapper to libmints.
   by Justin Turney

   Calculation information:
      Number of atoms:                   4
      Number of AO shells:              18
      Number of SO shells:               9
      Number of primitives:             54
      Number of atomic orbitals:        40
      Number of basis functions:        38

      Number of irreps:                  2
      Number of functions per irrep: [  19   19 ]

      Overlap, kinetic, potential, dipole, and quadrupole integrals
        stored in file 35.

  ==> DFJK: Density-Fitted J/K Matrices <==

    J tasked:                  Yes
    K tasked:                  Yes
    wK tasked:                  No
    OpenMP threads:              1
    Integrals threads:           1
    Memory (MB):               183
    Algorithm:                Core
    Integral Cache:           NONE
    Schwarz Cutoff:          0E+00
    Fitting Condition:       1E-12

   => Auxiliary Basis Set <=

  Basis Set: cc-pvdz-jkfit
    Number of shells: 66
    Number of basis function: 186
    Number of Cartesian functions: 212
    Spherical Harmonics?: true
    Max angular momentum: 3

  Minimum eigenvalue in the overlap matrix is 2.2074223048E-02.
  Using Symmetric Orthogonalization.
  SCF Guess: Projection.

  Using orbitals from previous SCF, no projection.
  Initial RHF energy:  -150.78666192786687

  ==> Iterations <==

                        Total Energy        Delta E     Density RMS

   @RHF iter   0:  -150.78621799413827    4.43934e-04   0.00000e+00 
   @RHF iter   1:  -150.78660273379739   -3.84740e-04   9.62081e-04 
   @RHF iter   2:  -150.78664688972322   -4.41559e-05   2.18141e-04 
   @RHF iter   3:  -150.78665569328189   -8.80356e-06   1.01267e-04 
   @RHF iter   4:  -150.78665785111036   -2.15783e-06   5.06437e-05 
   @RHF iter   5:  -150.78665840600704   -5.54897e-07   2.62811e-05 
   @RHF iter   6:  -150.78665855135625   -1.45349e-07   1.35625e-05 
   @RHF iter   7:  -150.78665858991911   -3.85629e-08   7.01951e-06 
   @RHF iter   8:  -150.78665860029565   -1.03765e-08   3.63125e-06 
   @RHF iter   9:  -150.78665860313970   -2.84405e-09   1.89504e-06 

  ==> Post-Iterations <==

	Orbital Energies (a.u.)
	-----------------------

	Doubly Occupied:                                                      

	   1A    -20.616583     1B    -20.616244     2A     -1.498327  
	   2B     -1.202633     3A     -0.722015     3B     -0.713145  
	   4A     -0.616253     5A     -0.505649     4B     -0.464537  

	Virtual:                                                              

	   6A      0.192009     5B      0.200791     6B      0.347960  
	   7B      0.832197     7A      0.839655     8B      1.119295  
	   8A      1.139948     9A      1.152587     9B      1.218179  
	  10B      1.281147    10A      1.332228    11B      1.471475  
	  11A      1.513554    12B      1.652332    12A      1.684226  
	  13A      1.957004    13B      2.015689    14A      2.475196  
	  14B      2.476128    15A      2.714239    16A      2.829797  
	  15B      2.874001    17A      3.252043    16B      3.309566  
	  17B      3.518649    18A      3.613381    18B      3.924006  
	  19A      3.964323    19B      4.286464  

	Final Occupation by Irrep:
	          A     B 
	DOCC [     5,    4 ]

  Energy converged.

  @RHF Final Energy:  -150.78665860313970

   => Energetics <=

    Nuclear Repulsion Energy =             38.0555696561772834
    One-Electron Energy =                -283.7736848097658822
    Two-Electron Energy =                  94.9314565504488002
    DFT Exchange-Correlation Energy =       0.0000000000000000
    Empirical Dispersion Energy =           0.0000000000000000
    Total Energy =                       -150.7866586031398128


Properties computed using the SCF density matrix


Properties will be evaluated at   0.000000,   0.000000,   0.000000 Bohr
  ==> Properties <==

  Nuclear Dipole Moment: (a.u.)
     X:     0.0000      Y:    -0.0000      Z:     0.8529

  Electronic Dipole Moment: (a.u.)
     X:     0.0000      Y:     0.0000      Z:    -0.1284

  Dipole Moment: (a.u.)
     X:     0.0000      Y:    -0.0000      Z:     0.7245     Total:     0.7245

  Dipole Moment: (Debye)
     X:     0.0000      Y:    -0.0000      Z:     1.8415     Total:     1.8415


  Saving occupied orbitals to File 180.

*** tstop() called on bsp-chem-h1.its.bethel.edu at Wed Apr 10 14:54:32 2013
Module time:
	user time   =       0.15 seconds =       0.00 minutes
	system time =       0.00 seconds =       0.00 minutes
	total time  =          0 seconds =       0.00 minutes
Total time:
	user time   =       1.90 seconds =       0.03 minutes
	system time =       0.06 seconds =       0.00 minutes
	total time  =          2 seconds =       0.03 minutes

No DF_BASIS_SCF auxiliary basis selected, defaulting to cc-pvdz-jkfit


*** tstart() called on bsp-chem-h1.its.bethel.edu
*** at Wed Apr 10 14:54:32 2013


         ------------------------------------------------------------
                                   SCF GRAD                          
                          Rob Parrish, Justin Turney,                
                       Andy Simmonett, and Alex Sokolov              
         ------------------------------------------------------------

  ==> Geometry <==

    Molecular point group: c2
    Full point group: C2

    Geometry (in Angstrom), charge = 0, multiplicity = 1:

       Center              X                  Y                   Z       
    ------------   -----------------  -----------------  -----------------
           H          0.941672787598     0.737921686521     0.455034499873
           O          0.125777601242     0.684595012737    -0.028671310247
           O         -0.125777601242    -0.684595012737    -0.028671310247
           H         -0.941672787598    -0.737921686521     0.455034499873

  Nuclear repulsion =   38.055569656177283

  ==> Basis Set <==

  Basis Set: CC-PVDZ
    Number of shells: 18
    Number of basis function: 38
    Number of Cartesian functions: 40
    Spherical Harmonics?: true
    Max angular momentum: 2

  ==> DFJKGrad: Density-Fitted SCF Gradients <==

    J tasked:                  Yes
    K tasked:                  Yes
    wK tasked:                  No
    OpenMP threads:              1
    Integrals threads:           1
    Memory (MB):               183
    Schwarz Cutoff:          0E+00
    Fitting Condition:       1E-12

   => Auxiliary Basis Set <=

  Basis Set: cc-pvdz-jkfit
    Number of shells: 66
    Number of basis function: 186
    Number of Cartesian functions: 212
    Spherical Harmonics?: true
    Max angular momentum: 3


  -Total Gradient:
     Atom            X                  Y                   Z
    ------   -----------------  -----------------  -----------------
       1        0.001916947663    -0.000303126230     0.001004272359
       2       -0.002629141747    -0.000809830577    -0.001004272360
       3        0.002629141685     0.000809830568    -0.001004272322
       4       -0.001916947601     0.000303126239     0.001004272324


*** tstop() called on bsp-chem-h1.its.bethel.edu at Wed Apr 10 14:54:32 2013
Module time:
	user time   =       0.26 seconds =       0.00 minutes
	system time =       0.01 seconds =       0.00 minutes
	total time  =          0 seconds =       0.00 minutes
Total time:
	user time   =       2.16 seconds =       0.04 minutes
	system time =       0.07 seconds =       0.00 minutes
	total time  =          2 seconds =       0.03 minutes

			-----------------------------------------
			 OPTKING 2.0: for geometry optimizations 
			  - R.A. King,  Bethel University        
			-----------------------------------------

	Previous internal coordinate definitions found.
	---Fragment 1 Geometry and Gradient---
	 H           1.7795036754        1.3944698950        0.8598905858
	 O           0.2376852200        1.2936970860       -0.0541809242
	 O          -0.2376852200       -1.2936970860       -0.0541809242
	 H          -1.7795036754       -1.3944698950        0.8598905858
	             0.0019169477       -0.0003031262        0.0010042724
	            -0.0026291417       -0.0008098306       -0.0010042724
	             0.0026291417        0.0008098306       -0.0010042723
	            -0.0019169476        0.0003031262        0.0010042723

	---Fragment 1 Intrafragment Coordinates---
	 - Coordinate -           - BOHR/RAD -       - ANG/DEG -
	*R(1,2)           =         1.795240	       0.950000
	 R(2,3)           =         2.630701	       1.392107
	*R(3,4)           =         1.795240	       0.950000
	 B(1,2,3)         =         1.782783	     102.145915
	 B(2,3,4)         =         1.782783	     102.145915
	 D(1,2,3,4)       =         2.045964	     117.225100

	Current energy   :      -150.7866586031

	Energy change for the previous step:
		Projected    :        -0.0000112218
		Actual       :         0.0000033247
	Energy ratio indicates iffy step: Trust radius decreased to 1.000e-01.


	Performing BFGS update with previous 1 gradient(s).
	Going to follow RFO solution 1.
	Projected energy change by RFO approximation:        -0.0000086885

	Back-transformation to cartesian coordinates...
	Successfully converged to displaced geometry.

	Back-transformation to cartesian coordinates to adjust frozen coordinates...
	Successfully converged to displaced geometry.

	---Internal Coordinate Step in ANG or DEG, aJ/ANG or AJ/DEG ---
	 ----------------------------------------------------------------------
	 Coordinate             Previous        Force       Change         New 
	 ----------             --------       ------       ------       ------
	 *R(1,2)         =      0.950000    -0.000000     0.000000     0.950000
	 R(2,3)          =      1.392107     0.010072     0.000785     1.392892
	 *R(3,4)         =      0.950000    -0.000000     0.000000     0.950000
	 B(1,2,3)        =    102.145915     0.000056     0.214134   102.360049
	 B(2,3,4)        =    102.145915     0.000056     0.214134   102.360049
	 D(1,2,3,4)      =    117.225100    -0.000005    -2.150185   115.074916
	 ----------------------------------------------------------------------

  ==> Convergence Check <==

  Measures of convergence in internal coordinates in au.
  Criteria marked as inactive (o), active & met (*), and active & unmet ( ).
  ---------------------------------------------------------------------------------------------
   Step     Total Energy     Delta E     MAX Force     RMS Force      MAX Disp      RMS Disp   
  ---------------------------------------------------------------------------------------------
    Convergence Criteria    1.00e-06 *    3.00e-04 *             o    1.20e-03 *             o
  ---------------------------------------------------------------------------------------------
      5    -150.78665860    3.32e-06      1.22e-03      6.65e-04 o    3.75e-02      1.55e-02 o  ~
  ---------------------------------------------------------------------------------------------

	Writing optimization data to binary file.
	Structure for next step:
	Cartesian Geometry (in Angstrom)
	    H     0.9372871722   0.7376861850   0.4622275721
	    O     0.1301055184   0.6841852222  -0.0358643499
	    O    -0.1301055184  -0.6841852222  -0.0358643499
	    H    -0.9372871722  -0.7376861850   0.4622275721
			--------------------------
			 OPTKING Finished Execution 
			--------------------------

    Structure for next step:
    Molecular point group: c2
    Full point group: C2

    Geometry (in Angstrom), charge = 0, multiplicity = 1:

    H       
    O             1    0.950000
    O             2    1.392892      1  102.360049
    H             3    0.950000      2  102.360049      1  115.074916


No DF_BASIS_SCF auxiliary basis selected, defaulting to cc-pvdz-jkfit


*** tstart() called on bsp-chem-h1.its.bethel.edu
*** at Wed Apr 10 14:54:32 2013

	There are an even number of electrons - assuming singlet.
	Specify the multiplicity with the MULTP option in the
	input if this is incorrect


         ---------------------------------------------------------
                                   SCF
            by Justin Turney, Rob Parrish, and Andy Simmonett
                              RHF Reference
                        1 Threads,    256 MiB Core
         ---------------------------------------------------------

  ==> Geometry <==

    Molecular point group: c2
    Full point group: C2

    Geometry (in Angstrom), charge = 0, multiplicity = 1:

       Center              X                  Y                   Z       
    ------------   -----------------  -----------------  -----------------
           H          0.933520086222     0.742447427135     0.468567849579
           O          0.126621274246     0.684838552514    -0.029524034311
           O         -0.126621274246    -0.684838552514    -0.029524034311
           H         -0.933520086222    -0.742447427135     0.468567849579

  Running in c2 symmetry.

  Nuclear repulsion =   38.034324423996793

  Charge       = 0
  Multiplicity = 1
  Electrons    = 18
  Nalpha       = 9
  Nbeta        = 9

  ==> Algorithm <==

  SCF Algorithm Type is DF.
  DIIS disabled.
  MOM disabled.
  Fractional occupation disabled.
  Guess Type is READ.
  Energy threshold   = 1.00e-08
  Density threshold  = 1.00e-06
  Integral threshold = 0.00e+00

  ==> Primary Basis <==

  Basis Set: CC-PVDZ
    Number of shells: 18
    Number of basis function: 38
    Number of Cartesian functions: 40
    Spherical Harmonics?: true
    Max angular momentum: 2

  ==> Pre-Iterations <==

   -------------------------------------------------------
    Irrep   Nso     Nmo     Nalpha   Nbeta   Ndocc  Nsocc
   -------------------------------------------------------
     A         19      19       0       0       0       0
     B         19      19       0       0       0       0
   -------------------------------------------------------
    Total      38      38       9       9       9       0
   -------------------------------------------------------

  ==> Integral Setup <==

 OEINTS: Wrapper to libmints.
   by Justin Turney

   Calculation information:
      Number of atoms:                   4
      Number of AO shells:              18
      Number of SO shells:               9
      Number of primitives:             54
      Number of atomic orbitals:        40
      Number of basis functions:        38

      Number of irreps:                  2
      Number of functions per irrep: [  19   19 ]

      Overlap, kinetic, potential, dipole, and quadrupole integrals
        stored in file 35.

  ==> DFJK: Density-Fitted J/K Matrices <==

    J tasked:                  Yes
    K tasked:                  Yes
    wK tasked:                  No
    OpenMP threads:              1
    Integrals threads:           1
    Memory (MB):               183
    Algorithm:                Core
    Integral Cache:           NONE
    Schwarz Cutoff:          0E+00
    Fitting Condition:       1E-12

   => Auxiliary Basis Set <=

  Basis Set: cc-pvdz-jkfit
    Number of shells: 66
    Number of basis function: 186
    Number of Cartesian functions: 212
    Spherical Harmonics?: true
    Max angular momentum: 3

  Minimum eigenvalue in the overlap matrix is 2.2169279501E-02.
  Using Symmetric Orthogonalization.
  SCF Guess: Projection.

  Using orbitals from previous SCF, no projection.
  Initial RHF energy:  -150.78665860313970

  ==> Iterations <==

                        Total Energy        Delta E     Density RMS

   @RHF iter   0:  -150.78620941157101    4.49192e-04   0.00000e+00 
   @RHF iter   1:  -150.78665385833324   -4.44447e-04   4.77983e-04 
   @RHF iter   2:  -150.78666451948760   -1.06612e-05   1.06764e-04 
[...]
       2       -0.000097515091    -0.000119384292     0.000205649065
       3        0.000097515100     0.000119384296     0.000205649058
       4       -0.000444361344    -0.000286006984    -0.000205649059


*** tstop() called on bsp-chem-h1.its.bethel.edu at Wed Apr 10 14:54:45 2013
Module time:
	user time   =       0.26 seconds =       0.00 minutes
	system time =       0.01 seconds =       0.00 minutes
	total time  =          0 seconds =       0.00 minutes
Total time:
	user time   =      14.66 seconds =       0.24 minutes
	system time =       0.44 seconds =       0.01 minutes
	total time  =         15 seconds =       0.25 minutes

			-----------------------------------------
			 OPTKING 2.0: for geometry optimizations 
			  - R.A. King,  Bethel University        
			-----------------------------------------

	Previous internal coordinate definitions found.
	---Fragment 1 Geometry and Gradient---
	 H           1.8037217693        1.3877757889        0.8245421068
	 O           0.2434374045        1.2940951063       -0.0519536487
	 O          -0.2434374045       -1.2940951063       -0.0519536487
	 H          -1.8037217693       -1.3877757889        0.8245421068
	             0.0004443613        0.0002860070       -0.0002056491
	            -0.0000975151       -0.0001193843        0.0002056491
	             0.0000975151        0.0001193843        0.0002056491
	            -0.0004443613       -0.0002860070       -0.0002056491

	---Fragment 1 Intrafragment Coordinates---
	 - Coordinate -           - BOHR/RAD -       - ANG/DEG -
	 R(1,2)           =         1.792068	       0.948322
	 R(2,3)           =         2.633586	       1.393634
	 R(3,4)           =         1.792068	       0.948322
	 B(1,2,3)         =         1.784760	     102.259195
	 B(2,3,4)         =         1.784760	     102.259195
	 D(1,2,3,4)       =         2.093216	     119.932445

	Current energy   :      -150.7866464926

	Energy change for the previous step:
		Projected    :        -0.0000973251
		Actual       :        -0.0000821456

	Performing BFGS update with previous 1 gradient(s).
	Adding user-defined constraint for coordinate 6.
	Value is 2.0932e+00; Eq. value is 2.0944e+00; Force is set to 5.4814e-06.
	Removing off-diagonal coupling of this coordinate with others.
	Going to follow RFO solution 1.
	Projected energy change by RFO approximation:        -0.0000011182

	Back-transformation to cartesian coordinates...
	Successfully converged to displaced geometry.

	---Internal Coordinate Step in ANG or DEG, aJ/ANG or AJ/DEG ---
	 ----------------------------------------------------------------------
	 Coordinate             Previous        Force       Change         New 
	 ----------             --------       ------       ------       ------
	 R(1,2)          =      0.948322    -0.002477    -0.000213     0.948108
	 R(2,3)          =      1.393634    -0.001884     0.000010     1.393643
	 R(3,4)          =      0.948322    -0.002477    -0.000213     0.948108
	 B(1,2,3)        =    102.259195    -0.000042    -0.103647   102.155547
	 B(2,3,4)        =    102.259195    -0.000042    -0.103647   102.155547
	 D(1,2,3,4)      =    119.932445     0.000000     0.067803   120.000248
	 ----------------------------------------------------------------------

  ==> Convergence Check <==

  Measures of convergence in internal coordinates in au.
  Criteria marked as inactive (o), active & met (*), and active & unmet ( ).
  ---------------------------------------------------------------------------------------------
   Step     Total Energy     Delta E     MAX Force     RMS Force      MAX Disp      RMS Disp   
  ---------------------------------------------------------------------------------------------
    Convergence Criteria    1.00e-06 *    3.00e-04 *             o    1.20e-03 *             o
  ---------------------------------------------------------------------------------------------
      4    -150.78664649   -8.21e-05      5.51e-04      3.74e-04 o    1.81e-03      1.17e-03 o  ~
  ---------------------------------------------------------------------------------------------

	Writing optimization data to binary file.
	Structure for next step:
	Cartesian Geometry (in Angstrom)
	    H     0.9539113354   0.7334767948   0.4361301081
	    O     0.1282051619   0.6849262413  -0.0272938733
	    O    -0.1282051619  -0.6849262413  -0.0272938733
	    H    -0.9539113354  -0.7334767948   0.4361301081
			--------------------------
			 OPTKING Finished Execution 
			--------------------------

    Structure for next step:
    Molecular point group: c2
    Full point group: C2

    Geometry (in Angstrom), charge = 0, multiplicity = 1:

    H       
    O             1    0.948108
    O             2    1.393643      1  102.155547
    H             3    0.948108      2  102.155547      1  120.000248


No DF_BASIS_SCF auxiliary basis selected, defaulting to cc-pvdz-jkfit


*** tstart() called on bsp-chem-h1.its.bethel.edu
*** at Wed Apr 10 14:54:45 2013

	There are an even number of electrons - assuming singlet.
	Specify the multiplicity with the MULTP option in the
	input if this is incorrect


         ---------------------------------------------------------
                                   SCF
            by Justin Turney, Rob Parrish, and Andy Simmonett
                              RHF Reference
                        1 Threads,    256 MiB Core
         ---------------------------------------------------------

  ==> Geometry <==

    Molecular point group: c2
    Full point group: C2

    Geometry (in Angstrom), charge = 0, multiplicity = 1:

       Center              X                  Y                   Z       
    ------------   -----------------  -----------------  -----------------
           H          0.953455635481     0.734068916641     0.435954828554
           O          0.127779831008     0.685005664373    -0.027469117499
           O         -0.127779831008    -0.685005664373    -0.027469117499
           H         -0.953455635481    -0.734068916641     0.435954828554

  Running in c2 symmetry.

  Nuclear repulsion =   38.044827410157431

  Charge       = 0
  Multiplicity = 1
  Electrons    = 18
  Nalpha       = 9
  Nbeta        = 9

  ==> Algorithm <==

  SCF Algorithm Type is DF.
  DIIS disabled.
  MOM disabled.
  Fractional occupation disabled.
  Guess Type is READ.
  Energy threshold   = 1.00e-08
  Density threshold  = 1.00e-06
  Integral threshold = 0.00e+00

  ==> Primary Basis <==

  Basis Set: CC-PVDZ
    Number of shells: 18
    Number of basis function: 38
    Number of Cartesian functions: 40
    Spherical Harmonics?: true
    Max angular momentum: 2

  ==> Pre-Iterations <==

   -------------------------------------------------------
    Irrep   Nso     Nmo     Nalpha   Nbeta   Ndocc  Nsocc
   -------------------------------------------------------
     A         19      19       0       0       0       0
     B         19      19       0       0       0       0
   -------------------------------------------------------
    Total      38      38       9       9       9       0
   -------------------------------------------------------

  ==> Integral Setup <==

 OEINTS: Wrapper to libmints.
   by Justin Turney

   Calculation information:
      Number of atoms:                   4
      Number of AO shells:              18
      Number of SO shells:               9
      Number of primitives:             54
      Number of atomic orbitals:        40
      Number of basis functions:        38

      Number of irreps:                  2
      Number of functions per irrep: [  19   19 ]

      Overlap, kinetic, potential, dipole, and quadrupole integrals
        stored in file 35.

  ==> DFJK: Density-Fitted J/K Matrices <==

    J tasked:                  Yes
    K tasked:                  Yes
    wK tasked:                  No
    OpenMP threads:              1
    Integrals threads:           1
    Memory (MB):               183
    Algorithm:                Core
    Integral Cache:           NONE
    Schwarz Cutoff:          0E+00
    Fitting Condition:       1E-12

   => Auxiliary Basis Set <=

  Basis Set: cc-pvdz-jkfit
    Number of shells: 66
    Number of basis function: 186
    Number of Cartesian functions: 212
    Spherical Harmonics?: true
    Max angular momentum: 3

  Minimum eigenvalue in the overlap matrix is 2.2067894803E-02.
  Using Symmetric Orthogonalization.
  SCF Guess: Projection.

  Using orbitals from previous SCF, no projection.
  Initial RHF energy:  -150.78664649257797

  ==> Iterations <==

                        Total Energy        Delta E     Density RMS

   @RHF iter   0:  -150.78688129640142   -2.34804e-04   0.00000e+00 
   @RHF iter   1:  -150.78664669048359    2.34606e-04   3.57833e-05 
   @RHF iter   2:  -150.78664687921872   -1.88735e-07   1.32040e-05 
   @RHF iter   3:  -150.78664692519442   -4.59757e-08   6.71540e-06 
   @RHF iter   4:  -150.78664693807377   -1.28794e-08   3.61282e-06 
   @RHF iter   5:  -150.78664694208987   -4.01610e-09   2.06717e-06 
   @RHF iter   6:  -150.78664694345559   -1.36572e-09   1.22934e-06 

  ==> Post-Iterations <==

	Orbital Energies (a.u.)
	-----------------------

	Doubly Occupied:                                                      

	   1A    -20.616422     1B    -20.616085     2A     -1.497767  
	   2B     -1.203758     3A     -0.720179     3B     -0.714483  
	   4A     -0.616594     5A     -0.507985     4B     -0.462788  

	Virtual:                                                              

	   6A      0.192785     5B      0.200800     6B      0.346787  
	   7B      0.832771     7A      0.841991     8B      1.118806  
	   8A      1.137061     9A      1.152340     9B      1.220428  
	  10B      1.280629    10A      1.333881    11B      1.472018  
	  11A      1.516791    12B      1.650213    12A      1.689675  
	  13A      1.954238    13B      2.019597    14A      2.477140  
	  14B      2.481302    15A      2.706674    16A      2.826228  
	  15B      2.883555    17A      3.259363    16B      3.307089  
	  17B      3.512544    18A      3.614989    18B      3.928621  
	  19A      3.964594    19B      4.287313  

	Final Occupation by Irrep:
	          A     B 
	DOCC [     5,    4 ]

  Energy converged.

  @RHF Final Energy:  -150.78664694345559

   => Energetics <=

    Nuclear Repulsion Energy =             38.0448274101574313
    One-Electron Energy =                -283.7508248203658923
    Two-Electron Energy =                  94.9193504667528600
    DFT Exchange-Correlation Energy =       0.0000000000000000
    Empirical Dispersion Energy =           0.0000000000000000
    Total Energy =                       -150.7866469434555938


Properties computed using the SCF density matrix


Properties will be evaluated at   0.000000,   0.000000,   0.000000 Bohr
  ==> Properties <==

  Nuclear Dipole Moment: (a.u.)
     X:     0.0000      Y:    -0.0000      Z:     0.8171

  Electronic Dipole Moment: (a.u.)
     X:     0.0000      Y:     0.0000      Z:    -0.1213

  Dipole Moment: (a.u.)
     X:     0.0000      Y:    -0.0000      Z:     0.6958     Total:     0.6958

  Dipole Moment: (Debye)
     X:     0.0000      Y:    -0.0000      Z:     1.7685     Total:     1.7685


  Saving occupied orbitals to File 180.

*** tstop() called on bsp-chem-h1.its.bethel.edu at Wed Apr 10 14:54:45 2013
Module time:
	user time   =       0.15 seconds =       0.00 minutes
	system time =       0.00 seconds =       0.00 minutes
	total time  =          0 seconds =       0.00 minutes
Total time:
	user time   =      14.82 seconds =       0.25 minutes
	system time =       0.44 seconds =       0.01 minutes
	total time  =         15 seconds =       0.25 minutes

No DF_BASIS_SCF auxiliary basis selected, defaulting to cc-pvdz-jkfit


*** tstart() called on bsp-chem-h1.its.bethel.edu
*** at Wed Apr 10 14:54:45 2013


         ------------------------------------------------------------
                                   SCF GRAD                          
                          Rob Parrish, Justin Turney,                
                       Andy Simmonett, and Alex Sokolov              
         ------------------------------------------------------------

  ==> Geometry <==

    Molecular point group: c2
    Full point group: C2

    Geometry (in Angstrom), charge = 0, multiplicity = 1:

       Center              X                  Y                   Z       
    ------------   -----------------  -----------------  -----------------
           H          0.953455635481     0.734068916641     0.435954828554
           O          0.127779831008     0.685005664373    -0.027469117499
           O         -0.127779831008    -0.685005664373    -0.027469117499
           H         -0.953455635481    -0.734068916641     0.435954828554

  Nuclear repulsion =   38.044827410157431

  ==> Basis Set <==

  Basis Set: CC-PVDZ
    Number of shells: 18
    Number of basis function: 38
    Number of Cartesian functions: 40
    Spherical Harmonics?: true
    Max angular momentum: 2

  ==> DFJKGrad: Density-Fitted SCF Gradients <==

    J tasked:                  Yes
    K tasked:                  Yes
    wK tasked:                  No
    OpenMP threads:              1
    Integrals threads:           1
    Memory (MB):               183
    Schwarz Cutoff:          0E+00
    Fitting Condition:       1E-12

   => Auxiliary Basis Set <=

  Basis Set: cc-pvdz-jkfit
    Number of shells: 66
    Number of basis function: 186
    Number of Cartesian functions: 212
    Spherical Harmonics?: true
    Max angular momentum: 3


  -Total Gradient:
     Atom            X                  Y                   Z
    ------   -----------------  -----------------  -----------------
       1        0.000227503781    -0.000010218471    -0.000276762020
       2       -0.000267398701    -0.000028784951     0.000276762018
       3        0.000267398664     0.000028784944     0.000276762039
       4       -0.000227503745     0.000010218476    -0.000276762038


*** tstop() called on bsp-chem-h1.its.bethel.edu at Wed Apr 10 14:54:46 2013
Module time:
	user time   =       0.26 seconds =       0.00 minutes
	system time =       0.01 seconds =       0.00 minutes
	total time  =          1 seconds =       0.02 minutes
Total time:
	user time   =      15.08 seconds =       0.25 minutes
	system time =       0.45 seconds =       0.01 minutes
	total time  =         16 seconds =       0.27 minutes

			-----------------------------------------
			 OPTKING 2.0: for geometry optimizations 
			  - R.A. King,  Bethel University        
			-----------------------------------------

	Previous internal coordinate definitions found.
	---Fragment 1 Geometry and Gradient---
	 H           1.8017700309        1.3871892151        0.8238352323
	 O           0.2414688859        1.2944731051       -0.0519091092
	 O          -0.2414688859       -1.2944731051       -0.0519091092
	 H          -1.8017700309       -1.3871892151        0.8238352323
	             0.0002275038       -0.0000102185       -0.0002767620
	            -0.0002673987       -0.0000287850        0.0002767620
	             0.0002673987        0.0000287849        0.0002767620
	            -0.0002275037        0.0000102185       -0.0002767620

	---Fragment 1 Intrafragment Coordinates---
	 - Coordinate -           - BOHR/RAD -       - ANG/DEG -
	 R(1,2)           =         1.791665	       0.948108
	 R(2,3)           =         2.633604	       1.393643
	 R(3,4)           =         1.791665	       0.948108
	 B(1,2,3)         =         1.782951	     102.155547
	 B(2,3,4)         =         1.782951	     102.155547
	 D(1,2,3,4)       =         2.094399	     120.000248

	Current energy   :      -150.7866469435

	Energy change for the previous step:
		Projected    :        -0.0000011182
		Actual       :        -0.0000004509

	Performing BFGS update with previous 1 gradient(s).
	Adding user-defined constraint for coordinate 6.
	Value is 2.0944e+00; Eq. value is 2.0944e+00; Force is set to 8.2043e-08.
	Removing off-diagonal coupling of this coordinate with others.
	Going to follow RFO solution 1.
	Projected energy change by RFO approximation:        -0.0000000169

	Back-transformation to cartesian coordinates...
	Successfully converged to displaced geometry.

	---Internal Coordinate Step in ANG or DEG, aJ/ANG or AJ/DEG ---
	 ----------------------------------------------------------------------
	 Coordinate             Previous        Force       Change         New 
	 ----------             --------       ------       ------       ------
	 R(1,2)          =      0.948108    -0.000520    -0.000061     0.948047
	 R(2,3)          =      1.393643     0.000386     0.000074     1.393717
	 R(3,4)          =      0.948108    -0.000520    -0.000061     0.948047
	 B(1,2,3)        =    102.155547    -0.000002    -0.011468   102.144080
	 B(2,3,4)        =    102.155547    -0.000002    -0.011468   102.144080
	 D(1,2,3,4)      =    120.000248     0.000000     0.000033   120.000281
	 ----------------------------------------------------------------------

  ==> Convergence Check <==

  Measures of convergence in internal coordinates in au.
  Criteria marked as inactive (o), active & met (*), and active & unmet ( ).
  ---------------------------------------------------------------------------------------------
   Step     Total Energy     Delta E     MAX Force     RMS Force      MAX Disp      RMS Disp   
  ---------------------------------------------------------------------------------------------
    Convergence Criteria    1.00e-06 *    3.00e-04 *             o    1.20e-03 *             o
  ---------------------------------------------------------------------------------------------
      5    -150.78664694   -4.51e-07 *    6.32e-05 *    4.50e-05 o    2.00e-04 *    1.45e-04 o  ~
  ---------------------------------------------------------------------------------------------


  **** Optimization is complete! ****

  ==> Optimization Summary <==

  Measures of convergence in internal coordinates in au.
  --------------------------------------------------------------------------------------------------------------- ~
   Step         Total Energy             Delta E       MAX Force       RMS Force        MAX Disp        RMS Disp  ~
  --------------------------------------------------------------------------------------------------------------- ~
      1    -150.780593228087   -150.780593228087      0.06555087      0.03833812      0.09104754      0.06355334  ~
      2    -150.786480833728     -0.005887605641      0.00825394      0.00518476      0.05806103      0.03270602  ~
      3    -150.786564346978     -0.000083513250      0.00492459      0.00372944      0.01510775      0.01126147  ~
      4    -150.786646492578     -0.000082145600      0.00055051      0.00037400      0.00180899      0.00117405  ~
      5    -150.786646943456     -0.000000450878      0.00006316      0.00004502      0.00020015      0.00014530  ~
  --------------------------------------------------------------------------------------------------------------- ~

	Writing optimization data to binary file.
	Final energy is   -150.7866469434556
	Final (previous) structure:
	Cartesian Geometry (in Angstrom)
	    H     0.9534557083   0.7340689727   0.4359548618
	    O     0.1277798408   0.6850057167  -0.0274691196
	    O    -0.1277798408  -0.6850057167  -0.0274691196
	    H    -0.9534557083  -0.7340689727   0.4359548618
	Saving final (previous) structure.
			--------------------------
			 OPTKING Finished Execution 
			--------------------------

    Final optimized geometry and variables:
    Molecular point group: c2
    Full point group: C2

    Geometry (in Angstrom), charge = 0, multiplicity = 1:

    H       
    O             1    0.948108
    O             2    1.393643      1  102.155547
    H             3    0.948108      2  102.155547      1  120.000248


*** PSI4 exiting successfully. Buy a developer a beer!
