
    -----------------------------------------------------------------------
          Psi4: An Open-Source Ab Initio Electronic Structure Package
                               Psi4 1.1rc3.dev5 

                         Git: Rev {master} 3fbd859 


    R. M. Parrish, L. A. Burns, D. G. A. Smith, A. C. Simmonett,
    A. E. DePrince III, E. G. Hohenstein, U. Bozkaya, A. Yu. Sokolov,
    R. Di Remigio, R. M. Richard, J. F. Gonthier, A. M. James,
    H. R. McAlexander, A. Kumar, M. Saitow, X. Wang, B. P. Pritchard,
    P. Verma, H. F. Schaefer III, K. Patkowski, R. A. King, E. F. Valeev,
    F. A. Evangelista, J. M. Turney, T. D. Crawford, and C. D. Sherrill,
    J. Chem. Theory Comput. in press (2017).
    (doi: 10.1021/acs.jctc.7b00174)

    -----------------------------------------------------------------------


    Psi4 started on: Monday, 15 May 2017 03:37PM

    Process ID:  14959
    PSIDATADIR: /home/psilocaluser/gits/hrw-direct/objdir4/stage/usr/local/psi4/share/psi4
    Memory:     500.0 MiB
    Threads:    1
    
  ==> Input File <==

--------------------------------------------------------------------------
#! Various constrained energy minimizations of HOOH with cc-pvdz RHF.
#! For "fixed" coordinates, the final value is provided by the user.

# Minimized energy with OH bonds at 0.950 Angstroms.  #TEST
OH_950_stre       = -150.78666731                     #TEST
# Minimized energy with OOH angles at 105.0 degrees.  #TEST
OOH_105_bend      = -150.78617685                     #TEST
# Minimized energy with HOOH torsion at 120.0 degrees.  #TEST
HOOH_120_dihedral = -150.78664695                       #TEST

set {
  diis false
  basis cc-pvdz
  g_convergence gau_tight
}

# Constrained minimization with O-H bonds fixed to reach equilibrium at 0.950 Angstroms.
molecule {
  H
  O 1 0.90
  O 2 1.40 1 100.0 
  H 3 0.90 2 100.0 1 115.0
}

set optking {
  fixed_distance = ("
    1  2 0.950
    3  4 0.950
  ")
}
thisenergy = optimize('scf')
compare_values(OH_950_stre , thisenergy, 6, "Int. Coord. RHF opt of HOOH with O-H fixed to 0.95, energy")  #TEST

# Constrained minimization with O-O-H angles fixed to reach eq. at 105.0 degrees.
molecule {
  H
  O 1 0.90
  O 2 1.40 1 100.0
  H 3 0.90 2 100.0 1 115.0
}

set optking {
  fixed_distance = (" ")
  fixed_bend = ("
    1 2 3 105.0
    2 3 4 105.0
  ")
}
thisenergy = optimize('scf')
compare_values(OOH_105_bend , thisenergy, 6, "Int. Coord. RHF opt of HOOH with O-O-H fixed to 105, energy") #TEST

# Constrained minimization with H-O-O-H dihedral fixed to 120.0 degrees.
molecule {
  H
  O 1 0.90
  O 2 1.40 1 100.0
  H 3 0.90 2 100.0 1 115.0
}

set optking {
  fixed_bend = (" ")
  fixed_dihedral = ("
    1 2 3 4 120.0
  ")
}
thisenergy = optimize('scf')
compare_values(HOOH_120_dihedral , thisenergy, 6, "Int. Coord. RHF opt of HOOH with H-O-O-H fixed to 120, energy") #TEST

--------------------------------------------------------------------------
gradient() will perform analytic gradient computation.

*** tstart() called on psinet
*** at Mon May 15 15:37:56 2017

   => Loading Basis Set <=

    Name: CC-PVDZ
    Role: ORBITAL
    Keyword: BASIS
    atoms 1, 4 entry H          line    20 file /home/psilocaluser/gits/hrw-direct/objdir4/stage/usr/local/psi4/share/psi4/basis/cc-pvdz.gbs 
    atoms 2-3  entry O          line   190 file /home/psilocaluser/gits/hrw-direct/objdir4/stage/usr/local/psi4/share/psi4/basis/cc-pvdz.gbs 

    There are an even number of electrons - assuming singlet.
    Specify the multiplicity in the molecule input block.


         ---------------------------------------------------------
                                   SCF
            by Justin Turney, Rob Parrish, and Andy Simmonett
                              RHF Reference
                        1 Threads,    500 MiB Core
         ---------------------------------------------------------

  ==> Geometry <==

    Molecular point group: c2
    Full point group: C2

    Geometry (in Angstrom), charge = 0, multiplicity = 1:

       Center              X                  Y                   Z               Mass       
    ------------   -----------------  -----------------  -----------------  -----------------
           H          0.865344357633     0.737012462184     0.447995357695     1.007825032070
           O          0.102966517591     0.692385655726    -0.028227780296    15.994914619560
           O         -0.102966517591    -0.692385655726    -0.028227780296    15.994914619560
           H         -0.865344357633    -0.737012462184     0.447995357695     1.007825032070

  Running in c2 symmetry.

  Rotational constants: A =     11.60076  B =      0.95315  C =      0.92223 [cm^-1]
  Rotational constants: A = 347781.98023  B =  28574.82190  C =  27647.68400 [MHz]
  Nuclear repulsion =   38.558828214442833

  Charge       = 0
  Multiplicity = 1
  Electrons    = 18
  Nalpha       = 9
  Nbeta        = 9

  ==> Algorithm <==

  SCF Algorithm Type is DF.
  DIIS disabled.
  MOM disabled.
  Fractional occupation disabled.
  Guess Type is SAD.
  Energy threshold   = 1.00e-08
  Density threshold  = 1.00e-08
  Integral threshold = 0.00e+00

  ==> Primary Basis <==

  Basis Set: CC-PVDZ
    Blend: CC-PVDZ
    Number of shells: 18
    Number of basis function: 38
    Number of Cartesian functions: 40
    Spherical Harmonics?: true
    Max angular momentum: 2

   => Loading Basis Set <=

    Name: (CC-PVDZ AUX)
    Role: JKFIT
    Keyword: DF_BASIS_SCF
    atoms 1, 4 entry H          line    50 file /home/psilocaluser/gits/hrw-direct/objdir4/stage/usr/local/psi4/share/psi4/basis/cc-pvdz-jkfit.gbs 
    atoms 2-3  entry O          line   220 file /home/psilocaluser/gits/hrw-direct/objdir4/stage/usr/local/psi4/share/psi4/basis/cc-pvdz-jkfit.gbs 

  ==> Pre-Iterations <==

   -------------------------------------------------------
    Irrep   Nso     Nmo     Nalpha   Nbeta   Ndocc  Nsocc
   -------------------------------------------------------
     A         19      19       0       0       0       0
     B         19      19       0       0       0       0
   -------------------------------------------------------
    Total      38      38       9       9       9       0
   -------------------------------------------------------

  ==> Integral Setup <==

  ==> DFJK: Density-Fitted J/K Matrices <==

    J tasked:                  Yes
    K tasked:                  Yes
    wK tasked:                  No
    OpenMP threads:              1
    Integrals threads:           1
    Memory (MB):               375
    Algorithm:                Core
    Integral Cache:           NONE
    Schwarz Cutoff:          1E-12
    Fitting Condition:       1E-12

   => Auxiliary Basis Set <=

  Basis Set: (CC-PVDZ AUX)
    Blend: CC-PVDZ-JKFIT
    Number of shells: 66
    Number of basis function: 186
    Number of Cartesian functions: 212
    Spherical Harmonics?: true
    Max angular momentum: 3

  Minimum eigenvalue in the overlap matrix is 2.1647736593E-02.
  Using Symmetric Orthogonalization.

  SCF Guess: Superposition of Atomic Densities via on-the-fly atomic UHF.

  ==> Iterations <==

                           Total Energy        Delta E     RMS |[F,P]|

   @DF-RHF iter   0:  -150.87140822923953   -1.50871e+02   8.00711e-02 
   @DF-RHF iter   1:  -150.75478163192454    1.16627e-01   9.16089e-03 
   @DF-RHF iter   2:  -150.77886504989618   -2.40834e-02   2.31620e-03 
   @DF-RHF iter   3:  -150.78029355614717   -1.42851e-03   8.99056e-04 
   @DF-RHF iter   4:  -150.78052222868024   -2.28673e-04   4.16838e-04 
   @DF-RHF iter   5:  -150.78057351397251   -5.12853e-05   1.90945e-04 
   @DF-RHF iter   6:  -150.78058705344753   -1.35395e-05   9.53095e-05 
   @DF-RHF iter   7:  -150.78059111045286   -4.05701e-06   4.70042e-05 
   @DF-RHF iter   8:  -150.78059245478494   -1.34433e-06   2.55833e-05 
   @DF-RHF iter   9:  -150.78059293469104   -4.79906e-07   1.40032e-05 
   @DF-RHF iter  10:  -150.78059311446037   -1.79769e-07   8.31684e-06 
   @DF-RHF iter  11:  -150.78059318378735   -6.93270e-08   4.94689e-06 
   @DF-RHF iter  12:  -150.78059321096470   -2.71774e-08   3.07441e-06 
   @DF-RHF iter  13:  -150.78059322171566   -1.07510e-08   1.90096e-06 
   @DF-RHF iter  14:  -150.78059322598926   -4.27360e-09   1.19860e-06 
   @DF-RHF iter  15:  -150.78059322769241   -1.70314e-09   7.51650e-07 
   @DF-RHF iter  16:  -150.78059322837225   -6.79847e-10   4.75475e-07 
   @DF-RHF iter  17:  -150.78059322864382   -2.71569e-10   2.99653e-07 
   @DF-RHF iter  18:  -150.78059322875225   -1.08429e-10   1.89615e-07 
   @DF-RHF iter  19:  -150.78059322879579   -4.35421e-11   1.19718e-07 
   @DF-RHF iter  20:  -150.78059322881299   -1.71951e-11   7.57378e-08 
   @DF-RHF iter  21:  -150.78059322882004   -7.04858e-12   4.78548e-08 
   @DF-RHF iter  22:  -150.78059322882271   -2.67164e-12   3.02673e-08 
   @DF-RHF iter  23:  -150.78059322882388   -1.16529e-12   1.91307e-08 
   @DF-RHF iter  24:  -150.78059322882433   -4.54747e-13   1.20979e-08 
   @DF-RHF iter  25:  -150.78059322882450   -1.70530e-13   7.64776e-09 

  ==> Post-Iterations <==

    Orbital Energies (a.u.)
    -----------------------

    Doubly Occupied:                                                      

       1A    -20.615516     1B    -20.615186     2A     -1.511549  
       2B     -1.226488     3A     -0.735099     3B     -0.725831  
       4A     -0.618626     5A     -0.514248     4B     -0.473810  

    Virtual:                                                              

       6A      0.198237     5B      0.208449     6B      0.340507  
       7B      0.882959     7A      0.885917     8B      1.110930  
       8A      1.129972     9A      1.155550     9B      1.208150  
      10B      1.272740    10A      1.339352    11B      1.481339  
      11A      1.519824    12B      1.660315    12A      1.677404  
      13A      1.981319    13B      1.995346    14A      2.581705  
      14B      2.606097    15A      2.754951    16A      2.821900  
      15B      2.915909    17A      3.309061    16B      3.357556  
      17B      3.520952    18A      3.635229    18B      3.933322  
      19A      4.020400    19B      4.319565  

    Final Occupation by Irrep:
              A     B 
    DOCC [     5,    4 ]

  Energy converged.

  @DF-RHF Final Energy:  -150.78059322882450

   => Energetics <=

    Nuclear Repulsion Energy =             38.5588282144428334
    One-Electron Energy =                -284.6061358821366412
    Two-Electron Energy =                  95.2667144388693146
    DFT Exchange-Correlation Energy =       0.0000000000000000
    Empirical Dispersion Energy =           0.0000000000000000
    PCM Polarization Energy =               0.0000000000000000
    EFP Energy =                            0.0000000000000000
    Total Energy =                       -150.7805932288245003



Properties will be evaluated at   0.000000,   0.000000,   0.000000 Bohr

Properties computed using the SCF density matrix

  Nuclear Dipole Moment: (a.u.)
     X:    -0.0000      Y:     0.0000      Z:     0.8397

  Electronic Dipole Moment: (a.u.)
     X:     0.0000      Y:     0.0000      Z:    -0.1180

  Dipole Moment: (a.u.)
     X:    -0.0000      Y:     0.0000      Z:     0.7217     Total:     0.7217

  Dipole Moment: (Debye)
     X:    -0.0000      Y:     0.0000      Z:     1.8344     Total:     1.8344


*** tstop() called on psinet at Mon May 15 15:37:57 2017
Module time:
	user time   =       0.58 seconds =       0.01 minutes
	system time =       0.02 seconds =       0.00 minutes
	total time  =          1 seconds =       0.02 minutes
Total time:
	user time   =       0.58 seconds =       0.01 minutes
	system time =       0.02 seconds =       0.00 minutes
	total time  =          1 seconds =       0.02 minutes

*** tstart() called on psinet
*** at Mon May 15 15:37:57 2017


         ------------------------------------------------------------
                                   SCF GRAD                          
                          Rob Parrish, Justin Turney,                
                       Andy Simmonett, and Alex Sokolov              
         ------------------------------------------------------------

  ==> Geometry <==

    Molecular point group: c2
    Full point group: C2

    Geometry (in Angstrom), charge = 0, multiplicity = 1:

       Center              X                  Y                   Z               Mass       
    ------------   -----------------  -----------------  -----------------  -----------------
           H          0.865344357633     0.737012462184     0.447995357695     1.007825032070
           O          0.102966517591     0.692385655726    -0.028227780296    15.994914619560
           O         -0.102966517591    -0.692385655726    -0.028227780296    15.994914619560
           H         -0.865344357633    -0.737012462184     0.447995357695     1.007825032070

  Nuclear repulsion =   38.558828214442833

  ==> Basis Set <==

  Basis Set: CC-PVDZ
    Blend: CC-PVDZ
    Number of shells: 18
    Number of basis function: 38
    Number of Cartesian functions: 40
    Spherical Harmonics?: true
    Max angular momentum: 2

  ==> DFJKGrad: Density-Fitted SCF Gradients <==

    Gradient:                    1
    J tasked:                  Yes
    K tasked:                  Yes
    wK tasked:                  No
    OpenMP threads:              1
    Integrals threads:           1
    Memory (MB):               375
    Schwarz Cutoff:          0E+00
    Fitting Condition:       1E-12

   => Auxiliary Basis Set <=

  Basis Set: (CC-PVDZ AUX)
    Blend: CC-PVDZ-JKFIT
    Number of shells: 66
    Number of basis function: 186
    Number of Cartesian functions: 212
    Spherical Harmonics?: true
    Max angular momentum: 3


  -Total Gradient:
     Atom            X                  Y                   Z
    ------   -----------------  -----------------  -----------------
       1       -0.055882213524    -0.009400762926    -0.033538511534
       2        0.049362119121     0.010941947959     0.033538511534
       3       -0.049362119121    -0.010941947959     0.033538511534
       4        0.055882213524     0.009400762926    -0.033538511534


*** tstop() called on psinet at Mon May 15 15:37:57 2017
Module time:
	user time   =       0.22 seconds =       0.00 minutes
	system time =       0.01 seconds =       0.00 minutes
	total time  =          0 seconds =       0.00 minutes
Total time:
	user time   =       0.80 seconds =       0.01 minutes
	system time =       0.03 seconds =       0.00 minutes
	total time  =          1 seconds =       0.02 minutes

			-----------------------------------------
			 OPTKING 2.0: for geometry optimizations 
			  - R.A. King,  Bethel University        
			-----------------------------------------

	Internal coordinates to be generated automatically.
	Detected frag 1 with atoms:  1 2 3 4
	---Fragment 1 Bond Connectivity---
	 1 : 2
	 2 : 1 3
	 3 : 2 4
	 4 : 3

	Assuming in current code that numbering for constraints corresponds to unified fragment.
	Fixed distance atom list: 
	     1     2
	     3     4
	---Fragment 1 Geometry and Gradient---
	 H           1.6352638466        1.3927517101        0.8465885348
	 O           0.1945785191        1.3084192677       -0.0533427741
	 O          -0.1945785191       -1.3084192677       -0.0533427741
	 H          -1.6352638466       -1.3927517101        0.8465885348
	            -0.0558822135       -0.0094007629       -0.0335385115
	             0.0493621191        0.0109419480        0.0335385115
	            -0.0493621191       -0.0109419480        0.0335385115
	             0.0558822135        0.0094007629       -0.0335385115

	Previous optimization step data not found.  Starting new optimization.

	---Fragment 1 Intrafragment Coordinates---
	 - Coordinate -           - BOHR/RAD -       - ANG/DEG -
	 R(1,2)           =         1.700754	       0.900000
	 R(2,3)           =         2.645617	       1.400000
	 R(3,4)           =         1.700754	       0.900000
	 B(1,2,3)         =         1.745329	     100.000000
	 B(2,3,4)         =         1.745329	     100.000000
	 D(1,2,3,4)       =         2.007129	     115.000000

	Current energy   :      -150.7805932288

	Generating empirical Hessian (Schlegel '84) for each fragment.
	Adding user-defined constraint: Fragment 1; Coordinate 1:
		Value =     1.700754; Fixed value    =     1.795240
		Force =     0.047243; Force constant =     0.500000
	Removing off-diagonal coupling between coordinate 1 and others.
	Adding user-defined constraint: Fragment 1; Coordinate 3:
		Value =     1.700754; Fixed value    =     1.795240
		Force =     0.047243; Force constant =     0.500000
	Removing off-diagonal coupling between coordinate 3 and others.
	Taking RFO optimization step.
	Going to follow RFO solution 1.
	Using RFO vector 1.

	Determining step-restricting scale parameter for RS-RFO.
	Maximum step size allowed    0.10000

	 Iter      |step|        alpha        rfo_root  
	------------------------------------------------
	    0     0.18166       1.00000           1
	    1     0.15296       3.06921           1
	    2     0.12608      11.91593           1
	    3     0.10734      25.39400           1
	    4     0.10081      32.54142           1
	    5     0.10001      33.54190           1
	    6     0.10000      33.55685           1
	------------------------------------------------
	Norm of target step-size    0.10000
	Projected energy change by RFO approximation:        -0.0062437976

	Back-transformation to cartesian coordinates...
	Successfully converged to displaced geometry.

	--- Internal Coordinate Step in ANG or DEG, aJ/ANG or AJ/DEG ---
	 ---------------------------------------------------------------------------
	   Coordinate                Previous        Force       Change         New 
	   ----------                --------       ------       ------       ------
	    1 R(1,2)          =      0.900000     0.389223     0.034433     0.934433
	    2 R(2,3)          =      1.400000    -0.004658    -0.000439     1.399561
	    3 R(3,4)          =      0.900000     0.389223     0.034433     0.934433
	    4 B(1,2,3)        =    100.000000     0.000806     1.572633   101.572633
	    5 B(2,3,4)        =    100.000000     0.000806     1.572633   101.572633
	    6 D(1,2,3,4)      =    115.000000     0.000020     0.281506   115.281506
	 ---------------------------------------------------------------------------
	Successfully symmetrized geometry.
	 Forces used to impose fixed constraints are not included.
	  Forces zeroed: 1 3 

  ==> Convergence Check <==

  Measures of convergence in internal coordinates in au.
  Criteria marked as inactive (o), active & met (*), and active & unmet ( ).
  --------------------------------------------------------------------------------------------- ~
   Step     Total Energy     Delta E     MAX Force     RMS Force      MAX Disp      RMS Disp    ~
  --------------------------------------------------------------------------------------------- ~
    Convergence Criteria             o    1.50e-05 *    1.00e-05 *    6.00e-05 *    4.00e-05 *  ~
  --------------------------------------------------------------------------------------------- ~
      1    -150.78059323   -1.51e+02 o    1.06e-02      6.14e-03      6.51e-02      4.08e-02    ~
  ---------------------------------------------------------------------------------------------

	Writing optimization data to binary file.
	Structure for next step:
	Cartesian Geometry (in Angstrom)
	    H     0.8958310421   0.7633061211   0.4548668340
	    O     0.1033476671   0.6921071862  -0.0350992566
	    O    -0.1033476671  -0.6921071862  -0.0350992566
	    H    -0.8958310421  -0.7633061211   0.4548668340
			--------------------------
			 OPTKING Finished Execution 
			--------------------------

    Structure for next step:
    Molecular point group: c2
    Full point group: C2

    Geometry (in Angstrom), charge = 0, multiplicity = 1:

    H       
    O             1    0.934433
    O             2    1.399561      1  101.572633
    H             3    0.934433      2  101.572633      1  115.281506

gradient() will perform analytic gradient computation.

*** tstart() called on psinet
*** at Mon May 15 15:37:57 2017

   => Loading Basis Set <=

    Name: CC-PVDZ
    Role: ORBITAL
    Keyword: BASIS
    atoms 1, 4 entry H          line    20 file /home/psilocaluser/gits/hrw-direct/objdir4/stage/usr/local/psi4/share/psi4/basis/cc-pvdz.gbs 
    atoms 2-3  entry O          line   190 file /home/psilocaluser/gits/hrw-direct/objdir4/stage/usr/local/psi4/share/psi4/basis/cc-pvdz.gbs 


         ---------------------------------------------------------
                                   SCF
            by Justin Turney, Rob Parrish, and Andy Simmonett
                              RHF Reference
                        1 Threads,    500 MiB Core
         ---------------------------------------------------------

  ==> Geometry <==

    Molecular point group: c2
    Full point group: C2

    Geometry (in Angstrom), charge = 0, multiplicity = 1:

       Center              X                  Y                   Z               Mass       
    ------------   -----------------  -----------------  -----------------  -----------------
           H          0.913186185195     0.742455710325     0.460923706864     1.007825032070
           O          0.119272301894     0.689541308011    -0.029042383826    15.994914619560
           O         -0.119272301894    -0.689541308011    -0.029042383826    15.994914619560
           H         -0.913186185195    -0.742455710325     0.460923706864     1.007825032070

  Running in c2 symmetry.

  Rotational constants: A =     10.93105  B =      0.94571  C =      0.91334 [cm^-1]
  Rotational constants: A = 327704.61040  B =  28351.60081  C =  27381.16742 [MHz]
  Nuclear repulsion =   38.105619761425494

  Charge       = 0
  Multiplicity = 1
  Electrons    = 18
  Nalpha       = 9
  Nbeta        = 9

  ==> Algorithm <==

  SCF Algorithm Type is DF.
  DIIS disabled.
  MOM disabled.
  Fractional occupation disabled.
  Guess Type is READ.
  Energy threshold   = 1.00e-08
  Density threshold  = 1.00e-08
  Integral threshold = 0.00e+00

  ==> Primary Basis <==

  Basis Set: CC-PVDZ
    Blend: CC-PVDZ
    Number of shells: 18
    Number of basis function: 38
    Number of Cartesian functions: 40
    Spherical Harmonics?: true
    Max angular momentum: 2

   => Loading Basis Set <=

    Name: (CC-PVDZ AUX)
    Role: JKFIT
    Keyword: DF_BASIS_SCF
    atoms 1, 4 entry H          line    50 file /home/psilocaluser/gits/hrw-direct/objdir4/stage/usr/local/psi4/share/psi4/basis/cc-pvdz-jkfit.gbs 
    atoms 2-3  entry O          line   220 file /home/psilocaluser/gits/hrw-direct/objdir4/stage/usr/local/psi4/share/psi4/basis/cc-pvdz-jkfit.gbs 

  Reading orbitals from file 180, no projection.

  ==> Pre-Iterations <==

   -------------------------------------------------------
    Irrep   Nso     Nmo     Nalpha   Nbeta   Ndocc  Nsocc
   -------------------------------------------------------
     A         19      19       0       0       0       0
     B         19      19       0       0       0       0
   -------------------------------------------------------
    Total      38      38       9       9       9       0
   -------------------------------------------------------

  ==> Integral Setup <==

  ==> DFJK: Density-Fitted J/K Matrices <==

    J tasked:                  Yes
    K tasked:                  Yes
    wK tasked:                  No
    OpenMP threads:              1
    Integrals threads:           1
    Memory (MB):               375
    Algorithm:                Core
    Integral Cache:           NONE
    Schwarz Cutoff:          1E-12
    Fitting Condition:       1E-12

   => Auxiliary Basis Set <=

  Basis Set: (CC-PVDZ AUX)
    Blend: CC-PVDZ-JKFIT
    Number of shells: 66
    Number of basis function: 186
    Number of Cartesian functions: 212
    Spherical Harmonics?: true
    Max angular momentum: 3

  Minimum eigenvalue in the overlap matrix is 2.2220865844E-02.
  Using Symmetric Orthogonalization.

  SCF Guess: Orbitals guess was supplied from a previous computation.

  ==> Iterations <==

                           Total Energy        Delta E     RMS |[F,P]|

   @DF-RHF iter   0:  -150.73632509583024   -1.50736e+02   5.96543e-03 
   @DF-RHF iter   1:  -150.78598470516798   -4.96596e-02   6.17198e-04 
   @DF-RHF iter   2:  -150.78614939279862   -1.64688e-04   2.50603e-04 
   @DF-RHF iter   3:  -150.78617745970826   -2.80669e-05   1.09252e-04 
   @DF-RHF iter   4:  -150.78618462335388   -7.16365e-06   5.85682e-05 
   @DF-RHF iter   5:  -150.78618673575275   -2.11240e-06   2.95678e-05 
   @DF-RHF iter   6:  -150.78618742534456   -6.89592e-07   1.67082e-05 
   @DF-RHF iter   7:  -150.78618766813696   -2.42792e-07   9.48015e-06 
   @DF-RHF iter   8:  -150.78618775809792   -8.99610e-08   5.66433e-06 
   @DF-RHF iter   9:  -150.78618779251573   -3.44178e-08   3.44888e-06 
   @DF-RHF iter  10:  -150.78618780593439   -1.34187e-08   2.12963e-06 
   @DF-RHF iter  11:  -150.78618781122296   -5.28857e-09   1.33287e-06 
   @DF-RHF iter  12:  -150.78618781331991   -2.09695e-09   8.34656e-07 
   @DF-RHF iter  13:  -150.78618781415415   -8.34234e-10   5.26682e-07 
   @DF-RHF iter  14:  -150.78618781448679   -3.32648e-10   3.31613e-07 
   @DF-RHF iter  15:  -150.78618781461947   -1.32673e-10   2.09661e-07 
   @DF-RHF iter  16:  -150.78618781467247   -5.30065e-11   1.32294e-07 
   @DF-RHF iter  17:  -150.78618781469370   -2.12310e-11   8.36637e-08 
   @DF-RHF iter  18:  -150.78618781470209   -8.38440e-12   5.28390e-08 
   @DF-RHF iter  19:  -150.78618781470547   -3.38218e-12   3.34123e-08 
   @DF-RHF iter  20:  -150.78618781470686   -1.39266e-12   2.11109e-08 
   @DF-RHF iter  21:  -150.78618781470738   -5.11591e-13   1.33475e-08 
   @DF-RHF iter  22:  -150.78618781470752   -1.42109e-13   8.43507e-09 

  ==> Post-Iterations <==

    Orbital Energies (a.u.)
    -----------------------

    Doubly Occupied:                                                      

       1A    -20.616865     1B    -20.616533     2A     -1.499540  
       2B     -1.210953     3A     -0.726052     3B     -0.715395  
       4A     -0.615316     5A     -0.507867     4B     -0.469373  

    Virtual:                                                              

       6A      0.193715     5B      0.202693     6B      0.341944  
       7B      0.847276     7A      0.853210     8B      1.117396  
       8A      1.139097     9A      1.153822     9B      1.214848  
      10B      1.278046    10A      1.334620    11B      1.474760  
      11A      1.513862    12B      1.655207    12A      1.679578  
      13A      1.964798    13B      2.006987    14A      2.508773  
      14B      2.514502    15A      2.731089    16A      2.820107  
      15B      2.884428    17A      3.267820    16B      3.325741  
      17B      3.514970    18A      3.613701    18B      3.926200  
      19A      3.981849    19B      4.290504  

    Final Occupation by Irrep:
              A     B 
    DOCC [     5,    4 ]

  Energy converged.

  @DF-RHF Final Energy:  -150.78618781470752

   => Energetics <=

    Nuclear Repulsion Energy =             38.1056197614254941
    One-Electron Energy =                -283.8278268819055370
    Two-Electron Energy =                  94.9360193057725184
    DFT Exchange-Correlation Energy =       0.0000000000000000
    Empirical Dispersion Energy =           0.0000000000000000
    PCM Polarization Energy =               0.0000000000000000
    EFP Energy =                            0.0000000000000000
    Total Energy =                       -150.7861878147075458



Properties will be evaluated at   0.000000,   0.000000,   0.000000 Bohr

Properties computed using the SCF density matrix

  Nuclear Dipole Moment: (a.u.)
     X:     0.0000      Y:    -0.0000      Z:     0.8639

  Electronic Dipole Moment: (a.u.)
     X:     0.0000      Y:     0.0000      Z:    -0.1271

  Dipole Moment: (a.u.)
     X:     0.0000      Y:    -0.0000      Z:     0.7368     Total:     0.7368

  Dipole Moment: (Debye)
     X:     0.0000      Y:    -0.0000      Z:     1.8728     Total:     1.8728


*** tstop() called on psinet at Mon May 15 15:37:57 2017
Module time:
	user time   =       0.31 seconds =       0.01 minutes
	system time =       0.01 seconds =       0.00 minutes
	total time  =          0 seconds =       0.00 minutes
Total time:
	user time   =       1.12 seconds =       0.02 minutes
	system time =       0.04 seconds =       0.00 minutes
	total time  =          1 seconds =       0.02 minutes

*** tstart() called on psinet
*** at Mon May 15 15:37:57 2017


         ------------------------------------------------------------
                                   SCF GRAD                          
                          Rob Parrish, Justin Turney,                
                       Andy Simmonett, and Alex Sokolov              
         ------------------------------------------------------------

  ==> Geometry <==

    Molecular point group: c2
    Full point group: C2

    Geometry (in Angstrom), charge = 0, multiplicity = 1:

       Center              X                  Y                   Z               Mass       
    ------------   -----------------  -----------------  -----------------  -----------------
           H          0.913186185195     0.742455710325     0.460923706864     1.007825032070
           O          0.119272301894     0.689541308011    -0.029042383826    15.994914619560
           O         -0.119272301894    -0.689541308011    -0.029042383826    15.994914619560
           H         -0.913186185195    -0.742455710325     0.460923706864     1.007825032070

  Nuclear repulsion =   38.105619761425494

  ==> Basis Set <==

  Basis Set: CC-PVDZ
    Blend: CC-PVDZ
    Number of shells: 18
    Number of basis function: 38
    Number of Cartesian functions: 40
    Spherical Harmonics?: true
    Max angular momentum: 2

  ==> DFJKGrad: Density-Fitted SCF Gradients <==

    Gradient:                    1
    J tasked:                  Yes
    K tasked:                  Yes
    wK tasked:                  No
    OpenMP threads:              1
    Integrals threads:           1
    Memory (MB):               375
    Schwarz Cutoff:          0E+00
    Fitting Condition:       1E-12

   => Auxiliary Basis Set <=

  Basis Set: (CC-PVDZ AUX)
    Blend: CC-PVDZ-JKFIT
    Number of shells: 66
    Number of basis function: 186
    Number of Cartesian functions: 212
    Spherical Harmonics?: true
    Max angular momentum: 3


  -Total Gradient:
     Atom            X                  Y                   Z
    ------   -----------------  -----------------  -----------------
       1       -0.014235458926    -0.002485363418    -0.008365730433
       2        0.013146271988     0.006416202339     0.008365730433
       3       -0.013146271988    -0.006416202339     0.008365730433
       4        0.014235458926     0.002485363418    -0.008365730433


*** tstop() called on psinet at Mon May 15 15:37:58 2017
Module time:
	user time   =       0.22 seconds =       0.00 minutes
	system time =       0.01 seconds =       0.00 minutes
	total time  =          1 seconds =       0.02 minutes
Total time:
	user time   =       1.34 seconds =       0.02 minutes
	system time =       0.05 seconds =       0.00 minutes
	total time  =          2 seconds =       0.03 minutes

			-----------------------------------------
			 OPTKING 2.0: for geometry optimizations 
			  - R.A. King,  Bethel University        
			-----------------------------------------

	Previous internal coordinate definitions found.
	---Fragment 1 Geometry and Gradient---
	 H           1.7256717984        1.4030379583        0.8710195741
	 O           0.2253919858        1.3030442295       -0.0548821517
	 O          -0.2253919858       -1.3030442295       -0.0548821517
	 H          -1.7256717984       -1.4030379583        0.8710195741
	            -0.0142354589       -0.0024853634       -0.0083657304
	             0.0131462720        0.0064162023        0.0083657304
	            -0.0131462720       -0.0064162023        0.0083657304
	             0.0142354589        0.0024853634       -0.0083657304

	---Fragment 1 Intrafragment Coordinates---
	 - Coordinate -           - BOHR/RAD -       - ANG/DEG -
	 R(1,2)           =         1.765823	       0.934433
	 R(2,3)           =         2.644788	       1.399561
	 R(3,4)           =         1.765823	       0.934433
	 B(1,2,3)         =         1.772777	     101.572633
	 B(2,3,4)         =         1.772777	     101.572633
	 D(1,2,3,4)       =         2.012042	     115.281506

	Current energy   :      -150.7861878147

	Energy change for the previous step:
		Projected    :        -0.0062437976
		Actual       :        -0.0055945859

	Performing BFGS update.
	Previous computed or guess Hessian on step 1.
	Steps to be used in Hessian update: 1
	Adding user-defined constraint: Fragment 1; Coordinate 1:
		Value =     1.765823; Fixed value    =     1.795240
		Force =     0.015444; Force constant =     0.525000
	Removing off-diagonal coupling between coordinate 1 and others.
	Adding user-defined constraint: Fragment 1; Coordinate 3:
		Value =     1.765823; Fixed value    =     1.795240
		Force =     0.015444; Force constant =     0.525000
	Removing off-diagonal coupling between coordinate 3 and others.
	Taking RFO optimization step.
	Going to follow RFO solution 1.
	Using RFO vector 1.

	Determining step-restricting scale parameter for RS-RFO.
	Maximum step size allowed    0.10000

	 Iter      |step|        alpha        rfo_root  
	------------------------------------------------
	    0     0.10739       1.00000           1
	    1     0.10065       1.28400           1
	    2     0.10001       1.31413           1
	------------------------------------------------
	Norm of target step-size    0.10001
	Projected energy change by RFO approximation:        -0.0006695511

	Back-transformation to cartesian coordinates...
	Successfully converged to displaced geometry.

	--- Internal Coordinate Step in ANG or DEG, aJ/ANG or AJ/DEG ---
	 ---------------------------------------------------------------------------
	   Coordinate                Previous        Force       Change         New 
	   ----------                --------       ------       ------       ------
	    1 R(1,2)          =      0.934433     0.127236     0.015526     0.949959
	    2 R(2,3)          =      1.399561    -0.030382    -0.004502     1.395059
	    3 R(3,4)          =      0.934433     0.127236     0.015526     0.949959
	    4 B(1,2,3)        =    101.572633     0.000211     0.797729   102.370363
	    5 B(2,3,4)        =    101.572633     0.000211     0.797729   102.370363
	    6 D(1,2,3,4)      =    115.281506     0.000006     5.045875   120.327381
	 ---------------------------------------------------------------------------
	Successfully symmetrized geometry.
	 Forces used to impose fixed constraints are not included.
	  Forces zeroed: 1 3 

  ==> Convergence Check <==

  Measures of convergence in internal coordinates in au.
  Criteria marked as inactive (o), active & met (*), and active & unmet ( ).
  ---------------------------------------------------------------------------------------------
   Step     Total Energy     Delta E     MAX Force     RMS Force      MAX Disp      RMS Disp   
  ---------------------------------------------------------------------------------------------
    Convergence Criteria             o    1.50e-05 *    1.00e-05 *    6.00e-05 *    4.00e-05 *
  ---------------------------------------------------------------------------------------------
      2    -150.78618781   -5.59e-03 o    3.69e-03      2.20e-03      8.81e-02      4.07e-02    ~
  ---------------------------------------------------------------------------------------------

	Writing optimization data to binary file.
	Structure for next step:
	Cartesian Geometry (in Angstrom)
	    H     0.9398359367   0.7592507648   0.4467678544
	    O     0.1126270873   0.6883767892  -0.0148865314
	    O    -0.1126270873  -0.6883767892  -0.0148865314
	    H    -0.9398359367  -0.7592507648   0.4467678544
			--------------------------
			 OPTKING Finished Execution 
			--------------------------

    Structure for next step:
    Molecular point group: c2
    Full point group: C2

    Geometry (in Angstrom), charge = 0, multiplicity = 1:

    H       
    O             1    0.949959
    O             2    1.395059      1  102.370363
    H             3    0.949959      2  102.370363      1  120.327381

gradient() will perform analytic gradient computation.

*** tstart() called on psinet
*** at Mon May 15 15:37:58 2017

   => Loading Basis Set <=

    Name: CC-PVDZ
    Role: ORBITAL
    Keyword: BASIS
    atoms 1, 4 entry H          line    20 file /home/psilocaluser/gits/hrw-direct/objdir4/stage/usr/local/psi4/share/psi4/basis/cc-pvdz.gbs 
    atoms 2-3  entry O          line   190 file /home/psilocaluser/gits/hrw-direct/objdir4/stage/usr/local/psi4/share/psi4/basis/cc-pvdz.gbs 


         ---------------------------------------------------------
                                   SCF
            by Justin Turney, Rob Parrish, and Andy Simmonett
                              RHF Reference
                        1 Threads,    500 MiB Core
         ---------------------------------------------------------

  ==> Geometry <==

    Molecular point group: c2
    Full point group: C2

    Geometry (in Angstrom), charge = 0, multiplicity = 1:

       Center              X                  Y                   Z               Mass       
    ------------   -----------------  -----------------  -----------------  -----------------
           H          0.959130611409     0.734725650768     0.434290157682     1.007825032070
           O          0.130367300844     0.685238521633    -0.027364228100    15.994914619560
           O         -0.130367300844    -0.685238521633    -0.027364228100    15.994914619560
           H         -0.959130611409    -0.734725650768     0.434290157682     1.007825032070

  Running in c2 symmetry.

  Rotational constants: A =     10.69175  B =      0.95034  C =      0.91088 [cm^-1]
  Rotational constants: A = 320530.49534  B =  28490.56366  C =  27307.56635 [MHz]
  Nuclear repulsion =   37.989203430053394

  Charge       = 0
  Multiplicity = 1
  Electrons    = 18
  Nalpha       = 9
  Nbeta        = 9

  ==> Algorithm <==

  SCF Algorithm Type is DF.
  DIIS disabled.
  MOM disabled.
  Fractional occupation disabled.
  Guess Type is READ.
  Energy threshold   = 1.00e-08
  Density threshold  = 1.00e-08
  Integral threshold = 0.00e+00

  ==> Primary Basis <==

  Basis Set: CC-PVDZ
    Blend: CC-PVDZ
    Number of shells: 18
    Number of basis function: 38
    Number of Cartesian functions: 40
    Spherical Harmonics?: true
    Max angular momentum: 2

   => Loading Basis Set <=

    Name: (CC-PVDZ AUX)
    Role: JKFIT
    Keyword: DF_BASIS_SCF
    atoms 1, 4 entry H          line    50 file /home/psilocaluser/gits/hrw-direct/objdir4/stage/usr/local/psi4/share/psi4/basis/cc-pvdz-jkfit.gbs 
    atoms 2-3  entry O          line   220 file /home/psilocaluser/gits/hrw-direct/objdir4/stage/usr/local/psi4/share/psi4/basis/cc-pvdz-jkfit.gbs 

  Reading orbitals from file 180, no projection.

  ==> Pre-Iterations <==

   -------------------------------------------------------
    Irrep   Nso     Nmo     Nalpha   Nbeta   Ndocc  Nsocc
   -------------------------------------------------------
     A         19      19       0       0       0       0
     B         19      19       0       0       0       0
   -------------------------------------------------------
    Total      38      38       9       9       9       0
   -------------------------------------------------------

  ==> Integral Setup <==

  ==> DFJK: Density-Fitted J/K Matrices <==

    J tasked:                  Yes
    K tasked:                  Yes
    wK tasked:                  No
    OpenMP threads:              1
    Integrals threads:           1
    Memory (MB):               375
    Algorithm:                Core
    Integral Cache:           NONE
    Schwarz Cutoff:          1E-12
    Fitting Condition:       1E-12

   => Auxiliary Basis Set <=

  Basis Set: (CC-PVDZ AUX)
    Blend: CC-PVDZ-JKFIT
    Number of shells: 66
    Number of basis function: 186
    Number of Cartesian functions: 212
    Spherical Harmonics?: true
    Max angular momentum: 3

  Minimum eigenvalue in the overlap matrix is 2.2175080249E-02.
  Using Symmetric Orthogonalization.

  SCF Guess: Orbitals guess was supplied from a previous computation.

  ==> Iterations <==

                           Total Energy        Delta E     RMS |[F,P]|

   @DF-RHF iter   0:  -150.76573569544891   -1.50766e+02   3.09600e-03 
   @DF-RHF iter   1:  -150.78646892530907   -2.07332e-02   4.98265e-04 
   @DF-RHF iter   2:  -150.78659368219309   -1.24757e-04   1.91610e-04 
   @DF-RHF iter   3:  -150.78661862490421   -2.49427e-05   9.02196e-05 
   @DF-RHF iter   4:  -150.78662514284036   -6.51794e-06   4.75853e-05 
   @DF-RHF iter   5:  -150.78662700501781   -1.86218e-06   2.48271e-05 
   @DF-RHF iter   6:  -150.78662757341442   -5.68397e-07   1.38174e-05 
   @DF-RHF iter   7:  -150.78662775773893   -1.84325e-07   7.79308e-06 
   @DF-RHF iter   8:  -150.78662782085172   -6.31128e-08   4.56767e-06 
   @DF-RHF iter   9:  -150.78662784346463   -2.26129e-08   2.73324e-06 
   @DF-RHF iter  10:  -150.78662785185665   -8.39202e-09   1.66463e-06 
   @DF-RHF iter  11:  -150.78662785505213   -3.19548e-09   1.02936e-06 
   @DF-RHF iter  12:  -150.78662785629083   -1.23870e-09   6.40304e-07 
   @DF-RHF iter  13:  -150.78662785677668   -4.85841e-10   4.01792e-07 
   @DF-RHF iter  14:  -150.78662785696889   -1.92216e-10   2.52436e-07 
   @DF-RHF iter  15:  -150.78662785704526   -7.63691e-11   1.59336e-07 
   @DF-RHF iter  16:  -150.78662785707579   -3.05249e-11   1.00555e-07 
   @DF-RHF iter  17:  -150.78662785708786   -1.20792e-11   6.36131e-08 
   @DF-RHF iter  18:  -150.78662785709284   -4.97380e-12   4.02257e-08 
   @DF-RHF iter  19:  -150.78662785709477   -1.93268e-12   2.54692e-08 
   @DF-RHF iter  20:  -150.78662785709548   -7.10543e-13   1.61201e-08 
   @DF-RHF iter  21:  -150.78662785709571   -2.27374e-13   1.02099e-08 
   @DF-RHF iter  22:  -150.78662785709599   -2.84217e-13   6.46491e-09 

  ==> Post-Iterations <==

    Orbital Energies (a.u.)
    -----------------------

    Doubly Occupied:                                                      

       1A    -20.616592     1B    -20.616256     2A     -1.496243  
       2B     -1.203369     3A     -0.719401     3B     -0.713521  
       4A     -0.616094     5A     -0.507828     4B     -0.462577  

    Virtual:                                                              

       6A      0.192612     5B      0.200080     6B      0.345921  
       7B      0.830507     7A      0.840493     8B      1.119166  
       8A      1.137838     9A      1.152201     9B      1.221396  
      10B      1.280818    10A      1.333843    11B      1.472837  
      11A      1.516922    12B      1.649573    12A      1.690624  
      13A      1.951634    13B      2.021407    14A      2.472583  
      14B      2.476244    15A      2.705653    16A      2.823936  
      15B      2.883168    17A      3.257744    16B      3.304767  
      17B      3.510017    18A      3.612125    18B      3.929158  
      19A      3.963016    19B      4.284117  

    Final Occupation by Irrep:
              A     B 
    DOCC [     5,    4 ]

  Energy converged.

  @DF-RHF Final Energy:  -150.78662785709599

   => Energetics <=

    Nuclear Repulsion Energy =             37.9892034300533936
    One-Electron Energy =                -283.6478968412548056
    Two-Electron Energy =                  94.8720655541054043
    DFT Exchange-Correlation Energy =       0.0000000000000000
    Empirical Dispersion Energy =           0.0000000000000000
    PCM Polarization Energy =               0.0000000000000000
    EFP Energy =                            0.0000000000000000
    Total Energy =                       -150.7866278570959935



Properties will be evaluated at   0.000000,   0.000000,   0.000000 Bohr

Properties computed using the SCF density matrix

  Nuclear Dipole Moment: (a.u.)
     X:     0.0000      Y:     0.0000      Z:     0.8140

  Electronic Dipole Moment: (a.u.)
     X:     0.0000      Y:     0.0000      Z:    -0.1207

  Dipole Moment: (a.u.)
     X:     0.0000      Y:     0.0000      Z:     0.6933     Total:     0.6933

  Dipole Moment: (Debye)
     X:     0.0000      Y:     0.0000      Z:     1.7623     Total:     1.7623


*** tstop() called on psinet at Mon May 15 15:37:58 2017
Module time:
	user time   =       0.31 seconds =       0.01 minutes
	system time =       0.02 seconds =       0.00 minutes
	total time  =          0 seconds =       0.00 minutes
Total time:
	user time   =       1.67 seconds =       0.03 minutes
	system time =       0.07 seconds =       0.00 minutes
	total time  =          2 seconds =       0.03 minutes

*** tstart() called on psinet
*** at Mon May 15 15:37:58 2017


         ------------------------------------------------------------
                                   SCF GRAD                          
                          Rob Parrish, Justin Turney,                
                       Andy Simmonett, and Alex Sokolov              
         ------------------------------------------------------------

  ==> Geometry <==

    Molecular point group: c2
    Full point group: C2

    Geometry (in Angstrom), charge = 0, multiplicity = 1:

       Center              X                  Y                   Z               Mass       
    ------------   -----------------  -----------------  -----------------  -----------------
           H          0.959130611409     0.734725650768     0.434290157682     1.007825032070
           O          0.130367300844     0.685238521633    -0.027364228100    15.994914619560
           O         -0.130367300844    -0.685238521633    -0.027364228100    15.994914619560
           H         -0.959130611409    -0.734725650768     0.434290157682     1.007825032070

  Nuclear repulsion =   37.989203430053394

  ==> Basis Set <==

  Basis Set: CC-PVDZ
    Blend: CC-PVDZ
    Number of shells: 18
    Number of basis function: 38
    Number of Cartesian functions: 40
    Spherical Harmonics?: true
    Max angular momentum: 2

  ==> DFJKGrad: Density-Fitted SCF Gradients <==

    Gradient:                    1
    J tasked:                  Yes
    K tasked:                  Yes
    wK tasked:                  No
    OpenMP threads:              1
    Integrals threads:           1
    Memory (MB):               375
    Schwarz Cutoff:          0E+00
    Fitting Condition:       1E-12

   => Auxiliary Basis Set <=

  Basis Set: (CC-PVDZ AUX)
    Blend: CC-PVDZ-JKFIT
    Number of shells: 66
    Number of basis function: 186
    Number of Cartesian functions: 212
    Spherical Harmonics?: true
    Max angular momentum: 3


  -Total Gradient:
     Atom            X                  Y                   Z
    ------   -----------------  -----------------  -----------------
       1        0.002091172363     0.000837290294     0.000601934435
       2       -0.000957192658     0.000594049705    -0.000601934435
       3        0.000957192658    -0.000594049705    -0.000601934435
       4       -0.002091172363    -0.000837290294     0.000601934435


*** tstop() called on psinet at Mon May 15 15:37:58 2017
Module time:
	user time   =       0.22 seconds =       0.00 minutes
	system time =       0.01 seconds =       0.00 minutes
	total time  =          0 seconds =       0.00 minutes
Total time:
	user time   =       1.89 seconds =       0.03 minutes
	system time =       0.08 seconds =       0.00 minutes
	total time  =          2 seconds =       0.03 minutes

			-----------------------------------------
			 OPTKING 2.0: for geometry optimizations 
			  - R.A. King,  Bethel University        
			-----------------------------------------

	Previous internal coordinate definitions found.
	---Fragment 1 Geometry and Gradient---
	 H           1.8124941812        1.3884302628        0.8206894602
	 O           0.2463584953        1.2949131416       -0.0517108969
	 O          -0.2463584953       -1.2949131416       -0.0517108969
	 H          -1.8124941812       -1.3884302628        0.8206894602
	             0.0020911724        0.0008372903        0.0006019344
	            -0.0009571927        0.0005940497       -0.0006019344
	             0.0009571927       -0.0005940497       -0.0006019344
	            -0.0020911724       -0.0008372903        0.0006019344

	---Fragment 1 Intrafragment Coordinates---
	 - Coordinate -           - BOHR/RAD -       - ANG/DEG -
	 R(1,2)           =         1.795163	       0.949959
	 R(2,3)           =         2.636280	       1.395059
	 R(3,4)           =         1.795163	       0.949959
	 B(1,2,3)         =         1.786700	     102.370363
	 B(2,3,4)         =         1.786700	     102.370363
	 D(1,2,3,4)       =         2.100109	     120.327381

	Current energy   :      -150.7866278571

	Energy change for the previous step:
		Projected    :        -0.0006695511
		Actual       :        -0.0004400424

	Performing BFGS update.
	Previous computed or guess Hessian on step 1.
	Steps to be used in Hessian update: 2 1
	Adding user-defined constraint: Fragment 1; Coordinate 1:
		Value =     1.795163; Fixed value    =     1.795240
		Force =     0.000043; Force constant =     0.550000
	Removing off-diagonal coupling between coordinate 1 and others.
	Adding user-defined constraint: Fragment 1; Coordinate 3:
		Value =     1.795163; Fixed value    =     1.795240
		Force =     0.000043; Force constant =     0.550000
	Removing off-diagonal coupling between coordinate 3 and others.
	Taking RFO optimization step.
	Going to follow RFO solution 1.
	Using RFO vector 1.

	Determining step-restricting scale parameter for RS-RFO.
	Maximum step size allowed    0.10000

	 Iter      |step|        alpha        rfo_root  
	------------------------------------------------
	    0     0.23070       1.00000           1
	    1     0.16187      10.74383           1
	    2     0.12246      26.18825           1
	    3     0.10475      39.58031           1
	    4     0.10029      44.09170           1
	    5     0.10000      44.40945           1
	------------------------------------------------
	Norm of target step-size    0.10000
	Projected energy change by RFO approximation:        -0.0001037324

	Back-transformation to cartesian coordinates...
	Successfully converged to displaced geometry.

	--- Internal Coordinate Step in ANG or DEG, aJ/ANG or AJ/DEG ---
	 ---------------------------------------------------------------------------
	   Coordinate                Previous        Force       Change         New 
	   ----------                --------       ------       ------       ------
	    1 R(1,2)          =      0.949959     0.000351     0.000041     0.950000
	    2 R(2,3)          =      1.395059    -0.013331    -0.001866     1.393193
	    3 R(3,4)          =      0.949959     0.000351     0.000041     0.950000
	    4 B(1,2,3)        =    102.370363    -0.000105    -0.367349   102.003014
	    5 B(2,3,4)        =    102.370363    -0.000105    -0.367349   102.003014
	    6 D(1,2,3,4)      =    120.327381    -0.000013    -5.711625   114.615756
	 ---------------------------------------------------------------------------
	Successfully symmetrized geometry.
	 Forces used to impose fixed constraints are not included.
	  Forces zeroed: 1 3 

  ==> Convergence Check <==

  Measures of convergence in internal coordinates in au.
  Criteria marked as inactive (o), active & met (*), and active & unmet ( ).
  ---------------------------------------------------------------------------------------------
   Step     Total Energy     Delta E     MAX Force     RMS Force      MAX Disp      RMS Disp   
  ---------------------------------------------------------------------------------------------
    Convergence Criteria             o    1.50e-05 *    1.00e-05 *    6.00e-05 *    4.00e-05 *
  ---------------------------------------------------------------------------------------------
      3    -150.78662786   -4.40e-04 o    1.62e-03      1.08e-03      9.97e-02      4.09e-02    ~
  ---------------------------------------------------------------------------------------------

	Writing optimization data to binary file.
	Structure for next step:
	Cartesian Geometry (in Angstrom)
	    H     0.9410779071   0.7248872234   0.4544128571
	    O     0.1355563241   0.6832797930  -0.0474869276
	    O    -0.1355563241  -0.6832797930  -0.0474869276
	    H    -0.9410779071  -0.7248872234   0.4544128571
			--------------------------
			 OPTKING Finished Execution 
			--------------------------

    Structure for next step:
    Molecular point group: c2
    Full point group: C2

    Geometry (in Angstrom), charge = 0, multiplicity = 1:

    H       
    O             1    0.950000
    O             2    1.393193      1  102.003014
    H             3    0.950000      2  102.003014      1  114.615756

gradient() will perform analytic gradient computation.

*** tstart() called on psinet
*** at Mon May 15 15:37:58 2017

   => Loading Basis Set <=

    Name: CC-PVDZ
    Role: ORBITAL
    Keyword: BASIS
    atoms 1, 4 entry H          line    20 file /home/psilocaluser/gits/hrw-direct/objdir4/stage/usr/local/psi4/share/psi4/basis/cc-pvdz.gbs 
    atoms 2-3  entry O          line   190 file /home/psilocaluser/gits/hrw-direct/objdir4/stage/usr/local/psi4/share/psi4/basis/cc-pvdz.gbs 


         ---------------------------------------------------------
                                   SCF
            by Justin Turney, Rob Parrish, and Andy Simmonett
                              RHF Reference
                        1 Threads,    500 MiB Core
         ---------------------------------------------------------

  ==> Geometry <==

    Molecular point group: c2
    Full point group: C2

    Geometry (in Angstrom), charge = 0, multiplicity = 1:

       Center              X                  Y                   Z               Mass       
    ------------   -----------------  -----------------  -----------------  -----------------
           H          0.927291480991     0.742441663110     0.472150039852     1.007825032070
           O          0.122693887858     0.685706207073    -0.029749744864    15.994914619560
           O         -0.122693887858    -0.685706207073    -0.029749744864    15.994914619560
           H         -0.927291480991    -0.742441663110     0.472150039852     1.007825032070

  Running in c2 symmetry.

  Rotational constants: A =     10.62640  B =      0.95047  C =      0.91781 [cm^-1]
  Rotational constants: A = 318571.47651  B =  28494.30962  C =  27515.26349 [MHz]
  Nuclear repulsion =   38.040205336119932

  Charge       = 0
  Multiplicity = 1
  Electrons    = 18
  Nalpha       = 9
  Nbeta        = 9

  ==> Algorithm <==

  SCF Algorithm Type is DF.
  DIIS disabled.
  MOM disabled.
  Fractional occupation disabled.
  Guess Type is READ.
  Energy threshold   = 1.00e-08
  Density threshold  = 1.00e-08
  Integral threshold = 0.00e+00

  ==> Primary Basis <==

  Basis Set: CC-PVDZ
    Blend: CC-PVDZ
    Number of shells: 18
    Number of basis function: 38
    Number of Cartesian functions: 40
    Spherical Harmonics?: true
    Max angular momentum: 2

   => Loading Basis Set <=

    Name: (CC-PVDZ AUX)
    Role: JKFIT
    Keyword: DF_BASIS_SCF
    atoms 1, 4 entry H          line    50 file /home/psilocaluser/gits/hrw-direct/objdir4/stage/usr/local/psi4/share/psi4/basis/cc-pvdz-jkfit.gbs 
    atoms 2-3  entry O          line   220 file /home/psilocaluser/gits/hrw-direct/objdir4/stage/usr/local/psi4/share/psi4/basis/cc-pvdz-jkfit.gbs 

  Reading orbitals from file 180, no projection.

  ==> Pre-Iterations <==

   -------------------------------------------------------
    Irrep   Nso     Nmo     Nalpha   Nbeta   Ndocc  Nsocc
   -------------------------------------------------------
     A         19      19       0       0       0       0
     B         19      19       0       0       0       0
   -------------------------------------------------------
    Total      38      38       9       9       9       0
   -------------------------------------------------------

  ==> Integral Setup <==

  ==> DFJK: Density-Fitted J/K Matrices <==

    J tasked:                  Yes
    K tasked:                  Yes
    wK tasked:                  No
    OpenMP threads:              1
    Integrals threads:           1
    Memory (MB):               375
    Algorithm:                Core
    Integral Cache:           NONE
    Schwarz Cutoff:          1E-12
    Fitting Condition:       1E-12

   => Auxiliary Basis Set <=

  Basis Set: (CC-PVDZ AUX)
    Blend: CC-PVDZ-JKFIT
    Number of shells: 66
    Number of basis function: 186
    Number of Cartesian functions: 212
    Spherical Harmonics?: true
    Max angular momentum: 3

  Minimum eigenvalue in the overlap matrix is 2.2172856272E-02.
  Using Symmetric Orthogonalization.

  SCF Guess: Orbitals guess was supplied from a previous computation.

  ==> Iterations <==

                           Total Energy        Delta E     RMS |[F,P]|

   @DF-RHF iter   0:  -150.78567225835124   -1.50786e+02   1.56646e-03 
   @DF-RHF iter   1:  -150.78653624791355   -8.63990e-04   3.92230e-04 
   @DF-RHF iter   2:  -150.78662908569399   -9.28378e-05   1.47969e-04 
   @DF-RHF iter   3:  -150.78664900852559   -1.99228e-05   7.29275e-05 
   @DF-RHF iter   4:  -150.78665419028204   -5.18176e-06   3.76202e-05 
   @DF-RHF iter   5:  -150.78665562678478   -1.43650e-06   1.99901e-05 
   @DF-RHF iter   6:  -150.78665604309157   -4.16307e-07   1.08821e-05 
   @DF-RHF iter   7:  -150.78665616908930   -1.25998e-07   6.05973e-06 
   @DF-RHF iter   8:  -150.78665620898536   -3.98961e-08   3.45668e-06 
   @DF-RHF iter   9:  -150.78665622219876   -1.32134e-08   2.01281e-06 
   @DF-RHF iter  10:  -150.78665622676056   -4.56180e-09   1.19592e-06 
   @DF-RHF iter  11:  -150.78665622839230   -1.63175e-09   7.20866e-07 
   @DF-RHF iter  12:  -150.78665622899291   -6.00608e-10   4.40227e-07 
   @DF-RHF iter  13:  -150.78665622921892   -2.26009e-10   2.70991e-07 
   @DF-RHF iter  14:  -150.78665622930507   -8.61462e-11   1.68005e-07 
   @DF-RHF iter  15:  -150.78665622933829   -3.32250e-11   1.04553e-07 
   @DF-RHF iter  16:  -150.78665622935134   -1.30456e-11   6.52969e-08 
   @DF-RHF iter  17:  -150.78665622935634   -5.00222e-12   4.08480e-08 
   @DF-RHF iter  18:  -150.78665622935833   -1.98952e-12   2.55974e-08 
   @DF-RHF iter  19:  -150.78665622935921   -8.81073e-13   1.60518e-08 
   @DF-RHF iter  20:  -150.78665622935932   -1.13687e-13   1.00742e-08 
   @DF-RHF iter  21:  -150.78665622935966   -3.41061e-13   6.32443e-09 

  ==> Post-Iterations <==

    Orbital Energies (a.u.)
    -----------------------

    Doubly Occupied:                                                      

       1A    -20.616942     1B    -20.616604     2A     -1.498186  
       2B     -1.202853     3A     -0.723537     3B     -0.712023  
       4A     -0.615455     5A     -0.504099     4B     -0.466968  

    Virtual:                                                              

       6A      0.191435     5B      0.200895     6B      0.347006  
       7B      0.833263     7A      0.838936     8B      1.119469  
       8A      1.142342     9A      1.152958     9B      1.215656  
      10B      1.281083    10A      1.331335    11B      1.471707  
      11A      1.510800    12B      1.654144    12A      1.678814  
      13A      1.960275    13B      2.011282    14B      2.475610  
      14A      2.476447    15A      2.723599    16A      2.829439  
      15B      2.867698    17A      3.248011    16B      3.313062  
      17B      3.521166    18A      3.610237    18B      3.919706  
      19A      3.965608    19B      4.285305  

    Final Occupation by Irrep:
              A     B 
    DOCC [     5,    4 ]

  Energy converged.

  @DF-RHF Final Energy:  -150.78665622935966

   => Energetics <=

    Nuclear Repulsion Energy =             38.0402053361199322
    One-Electron Energy =                -283.7403903741450790
    Two-Electron Energy =                  94.9135288086654754
    DFT Exchange-Correlation Energy =       0.0000000000000000
    Empirical Dispersion Energy =           0.0000000000000000
    PCM Polarization Energy =               0.0000000000000000
    EFP Energy =                            0.0000000000000000
    Total Energy =                       -150.7866562293596644



Properties will be evaluated at   0.000000,   0.000000,   0.000000 Bohr

Properties computed using the SCF density matrix

  Nuclear Dipole Moment: (a.u.)
     X:     0.0000      Y:     0.0000      Z:     0.8850

  Electronic Dipole Moment: (a.u.)
     X:     0.0000      Y:     0.0000      Z:    -0.1345

  Dipole Moment: (a.u.)
     X:     0.0000      Y:     0.0000      Z:     0.7505     Total:     0.7505

  Dipole Moment: (Debye)
     X:     0.0000      Y:     0.0000      Z:     1.9075     Total:     1.9075


*** tstop() called on psinet at Mon May 15 15:37:59 2017
Module time:
	user time   =       0.30 seconds =       0.00 minutes
	system time =       0.01 seconds =       0.00 minutes
	total time  =          1 seconds =       0.02 minutes
Total time:
	user time   =       2.20 seconds =       0.04 minutes
	system time =       0.09 seconds =       0.00 minutes
	total time  =          3 seconds =       0.05 minutes

*** tstart() called on psinet
*** at Mon May 15 15:37:59 2017


         ------------------------------------------------------------
                                   SCF GRAD                          
                          Rob Parrish, Justin Turney,                
                       Andy Simmonett, and Alex Sokolov              
         ------------------------------------------------------------

  ==> Geometry <==

    Molecular point group: c2
    Full point group: C2

    Geometry (in Angstrom), charge = 0, multiplicity = 1:

       Center              X                  Y                   Z               Mass       
    ------------   -----------------  -----------------  -----------------  -----------------
           H          0.927291480991     0.742441663110     0.472150039852     1.007825032070
           O          0.122693887858     0.685706207073    -0.029749744864    15.994914619560
           O         -0.122693887858    -0.685706207073    -0.029749744864    15.994914619560
           H         -0.927291480991    -0.742441663110     0.472150039852     1.007825032070

  Nuclear repulsion =   38.040205336119932

  ==> Basis Set <==

  Basis Set: CC-PVDZ
    Blend: CC-PVDZ
    Number of shells: 18
    Number of basis function: 38
    Number of Cartesian functions: 40
    Spherical Harmonics?: true
    Max angular momentum: 2

  ==> DFJKGrad: Density-Fitted SCF Gradients <==

    Gradient:                    1
    J tasked:                  Yes
    K tasked:                  Yes
    wK tasked:                  No
    OpenMP threads:              1
    Integrals threads:           1
    Memory (MB):               375
    Schwarz Cutoff:          0E+00
    Fitting Condition:       1E-12

   => Auxiliary Basis Set <=

  Basis Set: (CC-PVDZ AUX)
    Blend: CC-PVDZ-JKFIT
    Number of shells: 66
    Number of basis function: 186
    Number of Cartesian functions: 212
    Spherical Harmonics?: true
    Max angular momentum: 3


  -Total Gradient:
     Atom            X                  Y                   Z
    ------   -----------------  -----------------  -----------------
       1        0.001674450629    -0.000844961300     0.001276077381
       2       -0.002876023199     0.000445163323    -0.001276077381
       3        0.002876023199    -0.000445163323    -0.001276077381
       4       -0.001674450629     0.000844961300     0.001276077381


*** tstop() called on psinet at Mon May 15 15:37:59 2017
Module time:
	user time   =       0.22 seconds =       0.00 minutes
	system time =       0.01 seconds =       0.00 minutes
	total time  =          0 seconds =       0.00 minutes
Total time:
	user time   =       2.42 seconds =       0.04 minutes
	system time =       0.10 seconds =       0.00 minutes
	total time  =          3 seconds =       0.05 minutes

			-----------------------------------------
			 OPTKING 2.0: for geometry optimizations 
			  - R.A. King,  Bethel University        
			-----------------------------------------

	Previous internal coordinate definitions found.
	---Fragment 1 Geometry and Gradient---
	 H           1.7523269444        1.4030114129        0.8922342690
	 O           0.2318578462        1.2957969390       -0.0562188703
	 O          -0.2318578462       -1.2957969390       -0.0562188703
	 H          -1.7523269444       -1.4030114129        0.8922342690
	             0.0016744506       -0.0008449613        0.0012760774
	            -0.0028760232        0.0004451633       -0.0012760774
	             0.0028760232       -0.0004451633       -0.0012760774
	            -0.0016744506        0.0008449613        0.0012760774

	---Fragment 1 Intrafragment Coordinates---
	 - Coordinate -           - BOHR/RAD -       - ANG/DEG -
	 R(1,2)           =         1.795239	       0.950000
	 R(2,3)           =         2.632754	       1.393193
	 R(3,4)           =         1.795239	       0.950000
	 B(1,2,3)         =         1.780288	     102.003014
	 B(2,3,4)         =         1.780288	     102.003014
	 D(1,2,3,4)       =         2.000422	     114.615756

	Current energy   :      -150.7866562294

	Energy change for the previous step:
		Projected    :        -0.0001037324
		Actual       :        -0.0000283723

	Performing BFGS update.
	Previous computed or guess Hessian on step 1.
	Steps to be used in Hessian update: 3 2
	Adding user-defined constraint: Fragment 1; Coordinate 1:
		Value =     1.795239; Fixed value    =     1.795240
		Force =     0.000000; Force constant =     0.575000
	Removing off-diagonal coupling between coordinate 1 and others.
	Adding user-defined constraint: Fragment 1; Coordinate 3:
		Value =     1.795239; Fixed value    =     1.795240
		Force =     0.000000; Force constant =     0.575000
	Removing off-diagonal coupling between coordinate 3 and others.
	Taking RFO optimization step.
	Going to follow RFO solution 1.
	Using RFO vector 1.
	Norm of target step-size    0.01150
	Projected energy change by RFO approximation:        -0.0000318919

	Back-transformation to cartesian coordinates...
	Successfully converged to displaced geometry.

	--- Internal Coordinate Step in ANG or DEG, aJ/ANG or AJ/DEG ---
	 ---------------------------------------------------------------------------
	   Coordinate                Previous        Force       Change         New 
	   ----------                --------       ------       ------       ------
	    1 R(1,2)          =      0.950000     0.000003     0.000000     0.950000
	    2 R(2,3)          =      1.393193     0.004986     0.000726     1.393919
	    3 R(3,4)          =      0.950000     0.000003     0.000000     0.950000
	    4 B(1,2,3)        =    102.003014     0.000134     0.421865   102.424879
	    5 B(2,3,4)        =    102.003014     0.000134     0.421865   102.424879
	    6 D(1,2,3,4)      =    114.615756     0.000003    -0.267029   114.348728
	 ---------------------------------------------------------------------------
	Successfully symmetrized geometry.
	 Forces used to impose fixed constraints are not included.
	  Forces zeroed: 1 3 

  ==> Convergence Check <==

  Measures of convergence in internal coordinates in au.
  Criteria marked as inactive (o), active & met (*), and active & unmet ( ).
  ---------------------------------------------------------------------------------------------
   Step     Total Energy     Delta E     MAX Force     RMS Force      MAX Disp      RMS Disp   
  ---------------------------------------------------------------------------------------------
    Convergence Criteria             o    1.50e-05 *    1.00e-05 *    6.00e-05 *    4.00e-05 *
  ---------------------------------------------------------------------------------------------
      4    -150.78665623   -2.84e-05 o    1.76e-03      1.05e-03      7.36e-03      4.69e-03    ~
  ---------------------------------------------------------------------------------------------

	Writing optimization data to binary file.
	Structure for next step:
	Cartesian Geometry (in Angstrom)
	    H     0.9292472667   0.7461527631   0.4726595054
	    O     0.1255677219   0.6855546667  -0.0302592104
	    O    -0.1255677219  -0.6855546667  -0.0302592104
	    H    -0.9292472667  -0.7461527631   0.4726595054
			--------------------------
			 OPTKING Finished Execution 
			--------------------------

    Structure for next step:
    Molecular point group: c2
    Full point group: C2

    Geometry (in Angstrom), charge = 0, multiplicity = 1:

    H       
    O             1    0.950000
    O             2    1.393919      1  102.424879
    H             3    0.950000      2  102.424879      1  114.348728

gradient() will perform analytic gradient computation.

*** tstart() called on psinet
*** at Mon May 15 15:37:59 2017

   => Loading Basis Set <=

    Name: CC-PVDZ
    Role: ORBITAL
    Keyword: BASIS
    atoms 1, 4 entry H          line    20 file /home/psilocaluser/gits/hrw-direct/objdir4/stage/usr/local/psi4/share/psi4/basis/cc-pvdz.gbs 
    atoms 2-3  entry O          line   190 file /home/psilocaluser/gits/hrw-direct/objdir4/stage/usr/local/psi4/share/psi4/basis/cc-pvdz.gbs 


         ---------------------------------------------------------
                                   SCF
            by Justin Turney, Rob Parrish, and Andy Simmonett
                              RHF Reference
                        1 Threads,    500 MiB Core
         ---------------------------------------------------------

  ==> Geometry <==

    Molecular point group: c2
    Full point group: C2

    Geometry (in Angstrom), charge = 0, multiplicity = 1:

       Center              X                  Y                   Z               Mass       
    ------------   -----------------  -----------------  -----------------  -----------------
           H          0.930672740775     0.744374017585     0.473108574473     1.007825032070
           O          0.126878759485     0.685313238009    -0.029810141259    15.994914619560
           O         -0.126878759485    -0.685313238009    -0.029810141259    15.994914619560
           H         -0.930672740775    -0.744374017585     0.473108574473     1.007825032070

  Running in c2 symmetry.

  Rotational constants: A =     10.67007  B =      0.94806  C =      0.91608 [cm^-1]
  Rotational constants: A = 319880.75130  B =  28422.18776  C =  27463.48329 [MHz]
  Nuclear repulsion =   38.012427180497468

  Charge       = 0
  Multiplicity = 1
  Electrons    = 18
  Nalpha       = 9
  Nbeta        = 9

  ==> Algorithm <==

  SCF Algorithm Type is DF.
  DIIS disabled.
  MOM disabled.
  Fractional occupation disabled.
  Guess Type is READ.
  Energy threshold   = 1.00e-08
  Density threshold  = 1.00e-08
  Integral threshold = 0.00e+00

  ==> Primary Basis <==

  Basis Set: CC-PVDZ
    Blend: CC-PVDZ
    Number of shells: 18
    Number of basis function: 38
    Number of Cartesian functions: 40
    Spherical Harmonics?: true
    Max angular momentum: 2

   => Loading Basis Set <=

    Name: (CC-PVDZ AUX)
    Role: JKFIT
    Keyword: DF_BASIS_SCF
    atoms 1, 4 entry H          line    50 file /home/psilocaluser/gits/hrw-direct/objdir4/stage/usr/local/psi4/share/psi4/basis/cc-pvdz-jkfit.gbs 
    atoms 2-3  entry O          line   220 file /home/psilocaluser/gits/hrw-direct/objdir4/stage/usr/local/psi4/share/psi4/basis/cc-pvdz-jkfit.gbs 

  Reading orbitals from file 180, no projection.

  ==> Pre-Iterations <==

   -------------------------------------------------------
    Irrep   Nso     Nmo     Nalpha   Nbeta   Ndocc  Nsocc
   -------------------------------------------------------
     A         19      19       0       0       0       0
     B         19      19       0       0       0       0
   -------------------------------------------------------
    Total      38      38       9       9       9       0
   -------------------------------------------------------

  ==> Integral Setup <==

  ==> DFJK: Density-Fitted J/K Matrices <==

    J tasked:                  Yes
    K tasked:                  Yes
    wK tasked:                  No
    OpenMP threads:              1
    Integrals threads:           1
    Memory (MB):               375
    Algorithm:                Core
    Integral Cache:           NONE
    Schwarz Cutoff:          1E-12
    Fitting Condition:       1E-12

   => Auxiliary Basis Set <=

  Basis Set: (CC-PVDZ AUX)
    Blend: CC-PVDZ-JKFIT
    Number of shells: 66
    Number of basis function: 186
    Number of Cartesian functions: 212
    Spherical Harmonics?: true
    Max angular momentum: 3

  Minimum eigenvalue in the overlap matrix is 2.2239304712E-02.
  Using Symmetric Orthogonalization.

  SCF Guess: Orbitals guess was supplied from a previous computation.

  ==> Iterations <==

                           Total Energy        Delta E     RMS |[F,P]|

   @DF-RHF iter   0:  -150.78665115436834   -1.50787e+02   3.65346e-04 
   @DF-RHF iter   1:  -150.78666107372362   -9.91936e-06   5.89026e-05 
   @DF-RHF iter   2:  -150.78666407646600   -3.00274e-06   2.73909e-05 
   @DF-RHF iter   3:  -150.78666482868772   -7.52222e-07   1.44743e-05 
   @DF-RHF iter   4:  -150.78666505012637   -2.21439e-07   8.07746e-06 
   @DF-RHF iter   5:  -150.78666512208108   -7.19547e-08   4.69783e-06 
   @DF-RHF iter   6:  -150.78666514719760   -2.51165e-08   2.81346e-06 
   @DF-RHF iter   7:  -150.78666515640404   -9.20645e-09   1.71826e-06 
   @DF-RHF iter   8:  -150.78666515988510   -3.48106e-09   1.06218e-06 
   @DF-RHF iter   9:  -150.78666516122621   -1.34111e-09   6.61469e-07 
   @DF-RHF iter  10:  -150.78666516174860   -5.22391e-10   4.13575e-07 
   @DF-RHF iter  11:  -150.78666516195332   -2.04722e-10   2.59229e-07 
   @DF-RHF iter  12:  -150.78666516203393   -8.06040e-11   1.62675e-07 
   @DF-RHF iter  13:  -150.78666516206556   -3.16334e-11   1.02169e-07 
   @DF-RHF iter  14:  -150.78666516207812   -1.25624e-11   6.41877e-08 
   @DF-RHF iter  15:  -150.78666516208304   -4.91696e-12   4.03375e-08 
   @DF-RHF iter  16:  -150.78666516208509   -2.04636e-12   2.53508e-08 
   @DF-RHF iter  17:  -150.78666516208580   -7.10543e-13   1.59338e-08 
   @DF-RHF iter  18:  -150.78666516208608   -2.84217e-13   1.00150e-08 
   @DF-RHF iter  19:  -150.78666516208622   -1.42109e-13   6.29500e-09 

  ==> Post-Iterations <==

    Orbital Energies (a.u.)
    -----------------------

    Doubly Occupied:                                                      

       1A    -20.616955     1B    -20.616618     2A     -1.497247  
       2B     -1.203249     3A     -0.724319     3B     -0.710912  
       4A     -0.615120     5A     -0.503491     4B     -0.467235  

    Virtual:                                                              

       6A      0.191514     5B      0.200298     6B      0.346916  
       7B      0.832570     7A      0.839058     8B      1.120015  
       8A      1.143810     9A      1.153184     9B      1.216829  
      10B      1.280983    10A      1.330715    11B      1.473574  
      11A      1.510853    12B      1.654485    12A      1.679186  
      13A      1.957589    13B      2.012625    14B      2.474847  
      14A      2.476645    15A      2.724068    16A      2.828193  
      15B      2.865961    17A      3.246591    16B      3.313463  
      17B      3.521268    18A      3.608409    18B      3.921701  
      19A      3.967572    19B      4.281993  

    Final Occupation by Irrep:
              A     B 
    DOCC [     5,    4 ]

  Energy converged.

  @DF-RHF Final Energy:  -150.78666516208622

   => Energetics <=

    Nuclear Repulsion Energy =             38.0124271804974683
    One-Electron Energy =                -283.6878899988549279
    Two-Electron Energy =                  94.8887976562712367
    DFT Exchange-Correlation Energy =       0.0000000000000000
    Empirical Dispersion Energy =           0.0000000000000000
    PCM Polarization Energy =               0.0000000000000000
    EFP Energy =                            0.0000000000000000
    Total Energy =                       -150.7866651620862228



Properties will be evaluated at   0.000000,   0.000000,   0.000000 Bohr

Properties computed using the SCF density matrix

  Nuclear Dipole Moment: (a.u.)
     X:    -0.0000      Y:     0.0000      Z:     0.8868

  Electronic Dipole Moment: (a.u.)
     X:     0.0000      Y:     0.0000      Z:    -0.1338

  Dipole Moment: (a.u.)
     X:    -0.0000      Y:     0.0000      Z:     0.7530     Total:     0.7530

  Dipole Moment: (Debye)
     X:    -0.0000      Y:     0.0000      Z:     1.9139     Total:     1.9139


*** tstop() called on psinet at Mon May 15 15:37:59 2017
Module time:
	user time   =       0.30 seconds =       0.01 minutes
	system time =       0.01 seconds =       0.00 minutes
	total time  =          0 seconds =       0.00 minutes
Total time:
	user time   =       2.73 seconds =       0.05 minutes
	system time =       0.12 seconds =       0.00 minutes
	total time  =          3 seconds =       0.05 minutes

*** tstart() called on psinet
*** at Mon May 15 15:37:59 2017


         ------------------------------------------------------------
                                   SCF GRAD                          
                          Rob Parrish, Justin Turney,                
                       Andy Simmonett, and Alex Sokolov              
         ------------------------------------------------------------

  ==> Geometry <==

    Molecular point group: c2
    Full point group: C2

    Geometry (in Angstrom), charge = 0, multiplicity = 1:

       Center              X                  Y                   Z               Mass       
    ------------   -----------------  -----------------  -----------------  -----------------
           H          0.930672740775     0.744374017585     0.473108574473     1.007825032070
           O          0.126878759485     0.685313238009    -0.029810141259    15.994914619560
           O         -0.126878759485    -0.685313238009    -0.029810141259    15.994914619560
           H         -0.930672740775    -0.744374017585     0.473108574473     1.007825032070

  Nuclear repulsion =   38.012427180497454

  ==> Basis Set <==

  Basis Set: CC-PVDZ
    Blend: CC-PVDZ
    Number of shells: 18
    Number of basis function: 38
    Number of Cartesian functions: 40
    Spherical Harmonics?: true
    Max angular momentum: 2

  ==> DFJKGrad: Density-Fitted SCF Gradients <==

    Gradient:                    1
    J tasked:                  Yes
    K tasked:                  Yes
    wK tasked:                  No
    OpenMP threads:              1
    Integrals threads:           1
    Memory (MB):               375
    Schwarz Cutoff:          0E+00
    Fitting Condition:       1E-12

   => Auxiliary Basis Set <=

  Basis Set: (CC-PVDZ AUX)
    Blend: CC-PVDZ-JKFIT
    Number of shells: 66
    Number of basis function: 186
    Number of Cartesian functions: 212
    Spherical Harmonics?: true
    Max angular momentum: 3


  -Total Gradient:
     Atom            X                  Y                   Z
    ------   -----------------  -----------------  -----------------
       1        0.001671022700     0.000358831740     0.001068248639
       2       -0.001194186157     0.000721170206    -0.001068248639
[...]

	Energy change for the previous step:
		Projected    :        -0.0000222338
		Actual       :        -0.0000136880

	Performing BFGS update.
	Previous computed or guess Hessian on step 1.
	Steps to be used in Hessian update: 4 3
	Adding user-defined constraint: Fragment 1; Coordinate 6:
		Value =     2.094400; Fixed value    =     2.094400
		Force =     0.000000; Force constant =     0.600000
	Removing off-diagonal coupling between coordinate 6 and others.
	Taking RFO optimization step.
	Going to follow RFO solution 1.
	Using RFO vector 1.
	Norm of target step-size    0.00036
	Projected energy change by RFO approximation:        -0.0000000603

	Back-transformation to cartesian coordinates...
	Successfully converged to displaced geometry.

	--- Internal Coordinate Step in ANG or DEG, aJ/ANG or AJ/DEG ---
	 ---------------------------------------------------------------------------
	   Coordinate                Previous        Force       Change         New 
	   ----------                --------       ------       ------       ------
	    1 R(1,2)          =      0.947964     0.000865     0.000087     0.948051
	    2 R(2,3)          =      1.393864    -0.000734    -0.000118     1.393746
	    3 R(3,4)          =      0.947964     0.000865     0.000087     0.948051
	    4 B(1,2,3)        =    102.137520     0.000002     0.006913   102.144433
	    5 B(2,3,4)        =    102.137520     0.000002     0.006913   102.144433
	    6 D(1,2,3,4)      =    120.000281     0.000000     0.000000   120.000281
	 ---------------------------------------------------------------------------
	Successfully symmetrized geometry.
	 Forces used to impose fixed constraints are not included.
	  Forces zeroed: 6 

  ==> Convergence Check <==

  Measures of convergence in internal coordinates in au.
  Criteria marked as inactive (o), active & met (*), and active & unmet ( ).
  ---------------------------------------------------------------------------------------------
   Step     Total Energy     Delta E     MAX Force     RMS Force      MAX Disp      RMS Disp   
  ---------------------------------------------------------------------------------------------
    Convergence Criteria             o    1.50e-05 *    1.00e-05 *    6.00e-05 *    4.00e-05 *
  ---------------------------------------------------------------------------------------------
      5    -150.78664693   -1.37e-05 o    1.05e-04      7.18e-05      2.23e-04      1.49e-04    ~
  ---------------------------------------------------------------------------------------------

	Writing optimization data to binary file.
	Structure for next step:
	Cartesian Geometry (in Angstrom)
	    H     0.9532167778   0.7341914784   0.4359330648
	    O     0.1276039861   0.6850907957  -0.0274820095
	    O    -0.1276039861  -0.6850907957  -0.0274820095
	    H    -0.9532167778  -0.7341914784   0.4359330648
			--------------------------
			 OPTKING Finished Execution 
			--------------------------

    Structure for next step:
    Molecular point group: c2
    Full point group: C2

    Geometry (in Angstrom), charge = 0, multiplicity = 1:

    H       
    O             1    0.948051
    O             2    1.393746      1  102.144433
    H             3    0.948051      2  102.144433      1  120.000281

gradient() will perform analytic gradient computation.

*** tstart() called on psinet
*** at Mon May 15 15:38:14 2017

   => Loading Basis Set <=

    Name: CC-PVDZ
    Role: ORBITAL
    Keyword: BASIS
    atoms 1, 4 entry H          line    20 file /home/psilocaluser/gits/hrw-direct/objdir4/stage/usr/local/psi4/share/psi4/basis/cc-pvdz.gbs 
    atoms 2-3  entry O          line   190 file /home/psilocaluser/gits/hrw-direct/objdir4/stage/usr/local/psi4/share/psi4/basis/cc-pvdz.gbs 


         ---------------------------------------------------------
                                   SCF
            by Justin Turney, Rob Parrish, and Andy Simmonett
                              RHF Reference
                        1 Threads,    500 MiB Core
         ---------------------------------------------------------

  ==> Geometry <==

    Molecular point group: c2
    Full point group: C2

    Geometry (in Angstrom), charge = 0, multiplicity = 1:

       Center              X                  Y                   Z               Mass       
    ------------   -----------------  -----------------  -----------------  -----------------
           H          0.953290646618     0.734095562948     0.435946482627     1.007825032070
           O          0.127672918630     0.685077952823    -0.027468591630    15.994914619560
           O         -0.127672918630    -0.685077952823    -0.027468591630    15.994914619560
           H         -0.953290646618    -0.734095562948     0.435946482627     1.007825032070

  Running in c2 symmetry.

  Rotational constants: A =     10.70806  B =      0.95276  C =      0.91353 [cm^-1]
  Rotational constants: A = 321019.55586  B =  28563.15039  C =  27386.96941 [MHz]
  Nuclear repulsion =   38.043806220436991

  Charge       = 0
  Multiplicity = 1
  Electrons    = 18
  Nalpha       = 9
  Nbeta        = 9

  ==> Algorithm <==

  SCF Algorithm Type is DF.
  DIIS disabled.
  MOM disabled.
  Fractional occupation disabled.
  Guess Type is READ.
  Energy threshold   = 1.00e-08
  Density threshold  = 1.00e-08
  Integral threshold = 0.00e+00

  ==> Primary Basis <==

  Basis Set: CC-PVDZ
    Blend: CC-PVDZ
    Number of shells: 18
    Number of basis function: 38
    Number of Cartesian functions: 40
    Spherical Harmonics?: true
    Max angular momentum: 2

   => Loading Basis Set <=

    Name: (CC-PVDZ AUX)
    Role: JKFIT
    Keyword: DF_BASIS_SCF
    atoms 1, 4 entry H          line    50 file /home/psilocaluser/gits/hrw-direct/objdir4/stage/usr/local/psi4/share/psi4/basis/cc-pvdz-jkfit.gbs 
    atoms 2-3  entry O          line   220 file /home/psilocaluser/gits/hrw-direct/objdir4/stage/usr/local/psi4/share/psi4/basis/cc-pvdz-jkfit.gbs 

  Reading orbitals from file 180, no projection.

  ==> Pre-Iterations <==

   -------------------------------------------------------
    Irrep   Nso     Nmo     Nalpha   Nbeta   Ndocc  Nsocc
   -------------------------------------------------------
     A         19      19       0       0       0       0
     B         19      19       0       0       0       0
   -------------------------------------------------------
    Total      38      38       9       9       9       0
   -------------------------------------------------------

  ==> Integral Setup <==

  ==> DFJK: Density-Fitted J/K Matrices <==

    J tasked:                  Yes
    K tasked:                  Yes
    wK tasked:                  No
    OpenMP threads:              1
    Integrals threads:           1
    Memory (MB):               375
    Algorithm:                Core
    Integral Cache:           NONE
    Schwarz Cutoff:          1E-12
    Fitting Condition:       1E-12

   => Auxiliary Basis Set <=

  Basis Set: (CC-PVDZ AUX)
    Blend: CC-PVDZ-JKFIT
    Number of shells: 66
    Number of basis function: 186
    Number of Cartesian functions: 212
    Spherical Harmonics?: true
    Max angular momentum: 3

  Minimum eigenvalue in the overlap matrix is 2.2071485669E-02.
  Using Symmetric Orthogonalization.

  SCF Guess: Orbitals guess was supplied from a previous computation.

  ==> Iterations <==

                           Total Energy        Delta E     RMS |[F,P]|

   @DF-RHF iter   0:  -150.78657891891538   -1.50787e+02   2.06107e-05 
   @DF-RHF iter   1:  -150.78664695625659   -6.80373e-05   2.57695e-06 
   @DF-RHF iter   2:  -150.78664695908756   -2.83097e-09   9.12558e-07 
   @DF-RHF iter   3:  -150.78664695954026   -4.52701e-10   3.94151e-07 
   @DF-RHF iter   4:  -150.78664695964616   -1.05899e-10   2.07089e-07 
   @DF-RHF iter   5:  -150.78664695967458   -2.84217e-11   1.02185e-07 
   @DF-RHF iter   6:  -150.78664695968303   -8.44125e-12   5.67818e-08 
   @DF-RHF iter   7:  -150.78664695968570   -2.67164e-12   3.13671e-08 
   @DF-RHF iter   8:  -150.78664695968669   -9.94760e-13   1.85118e-08 
   @DF-RHF iter   9:  -150.78664695968712   -4.26326e-13   1.11015e-08 
   @DF-RHF iter  10:  -150.78664695968723   -1.13687e-13   6.81856e-09 

  ==> Post-Iterations <==

    Orbital Energies (a.u.)
    -----------------------

    Doubly Occupied:                                                      

       1A    -20.616434     1B    -20.616097     2A     -1.497744  
       2B     -1.203801     3A     -0.720153     3B     -0.714499  
       4A     -0.616578     5A     -0.508017     4B     -0.462818  

    Virtual:                                                              

       6A      0.192789     5B      0.200809     6B      0.346697  
       7B      0.832838     7A      0.842032     8B      1.118790  
       8A      1.137043     9A      1.152332     9B      1.220400  
      10B      1.280613    10A      1.333917    11B      1.471991  
      11A      1.516800    12B      1.650204    12A      1.689657  
      13A      1.954301    13B      2.019534    14A      2.477238  
      14B      2.481448    15A      2.706760    16A      2.826082  
      15B      2.883678    17A      3.259465    16B      3.307133  
      17B      3.512404    18A      3.614936    18B      3.928581  
      19A      3.964601    19B      4.287325  

    Final Occupation by Irrep:
              A     B 
    DOCC [     5,    4 ]

  Energy converged.

  @DF-RHF Final Energy:  -150.78664695968723

   => Energetics <=

    Nuclear Repulsion Energy =             38.0438062204369913
    One-Electron Energy =                -283.7486260051750833
    Two-Electron Energy =                  94.9181728250508741
    DFT Exchange-Correlation Energy =       0.0000000000000000
    Empirical Dispersion Energy =           0.0000000000000000
    PCM Polarization Energy =               0.0000000000000000
    EFP Energy =                            0.0000000000000000
    Total Energy =                       -150.7866469596872321



Properties will be evaluated at   0.000000,   0.000000,   0.000000 Bohr

Properties computed using the SCF density matrix

  Nuclear Dipole Moment: (a.u.)
     X:     0.0000      Y:     0.0000      Z:     0.8171

  Electronic Dipole Moment: (a.u.)
     X:     0.0000      Y:     0.0000      Z:    -0.1213

  Dipole Moment: (a.u.)
     X:     0.0000      Y:     0.0000      Z:     0.6958     Total:     0.6958

  Dipole Moment: (Debye)
     X:     0.0000      Y:     0.0000      Z:     1.7685     Total:     1.7685


*** tstop() called on psinet at Mon May 15 15:38:14 2017
Module time:
	user time   =       0.27 seconds =       0.00 minutes
	system time =       0.01 seconds =       0.00 minutes
	total time  =          0 seconds =       0.00 minutes
Total time:
	user time   =      16.79 seconds =       0.28 minutes
	system time =       0.71 seconds =       0.01 minutes
	total time  =         18 seconds =       0.30 minutes

*** tstart() called on psinet
*** at Mon May 15 15:38:14 2017


         ------------------------------------------------------------
                                   SCF GRAD                          
                          Rob Parrish, Justin Turney,                
                       Andy Simmonett, and Alex Sokolov              
         ------------------------------------------------------------

  ==> Geometry <==

    Molecular point group: c2
    Full point group: C2

    Geometry (in Angstrom), charge = 0, multiplicity = 1:

       Center              X                  Y                   Z               Mass       
    ------------   -----------------  -----------------  -----------------  -----------------
           H          0.953290646618     0.734095562948     0.435946482627     1.007825032070
           O          0.127672918630     0.685077952823    -0.027468591630    15.994914619560
           O         -0.127672918630    -0.685077952823    -0.027468591630    15.994914619560
           H         -0.953290646618    -0.734095562948     0.435946482627     1.007825032070

  Nuclear repulsion =   38.043806220436991

  ==> Basis Set <==

  Basis Set: CC-PVDZ
    Blend: CC-PVDZ
    Number of shells: 18
    Number of basis function: 38
    Number of Cartesian functions: 40
    Spherical Harmonics?: true
    Max angular momentum: 2

  ==> DFJKGrad: Density-Fitted SCF Gradients <==

    Gradient:                    1
    J tasked:                  Yes
    K tasked:                  Yes
    wK tasked:                  No
    OpenMP threads:              1
    Integrals threads:           1
    Memory (MB):               375
    Schwarz Cutoff:          0E+00
    Fitting Condition:       1E-12

   => Auxiliary Basis Set <=

  Basis Set: (CC-PVDZ AUX)
    Blend: CC-PVDZ-JKFIT
    Number of shells: 66
    Number of basis function: 186
    Number of Cartesian functions: 212
    Spherical Harmonics?: true
    Max angular momentum: 3


  -Total Gradient:
     Atom            X                  Y                   Z
    ------   -----------------  -----------------  -----------------
       1        0.000168573474    -0.000035140937    -0.000304600848
       2       -0.000219372872     0.000054344862     0.000304600848
       3        0.000219372872    -0.000054344862     0.000304600848
       4       -0.000168573474     0.000035140937    -0.000304600848


*** tstop() called on psinet at Mon May 15 15:38:14 2017
Module time:
	user time   =       0.22 seconds =       0.00 minutes
	system time =       0.01 seconds =       0.00 minutes
	total time  =          0 seconds =       0.00 minutes
Total time:
	user time   =      17.01 seconds =       0.28 minutes
	system time =       0.72 seconds =       0.01 minutes
	total time  =         18 seconds =       0.30 minutes

			-----------------------------------------
			 OPTKING 2.0: for geometry optimizations 
			  - R.A. King,  Bethel University        
			-----------------------------------------

	Previous internal coordinate definitions found.
	---Fragment 1 Geometry and Gradient---
	 H           1.8014582471        1.3872395693        0.8238194608
	 O           0.2412668508        1.2946097105       -0.0519081154
	 O          -0.2412668508       -1.2946097105       -0.0519081154
	 H          -1.8014582471       -1.3872395693        0.8238194608
	             0.0001685735       -0.0000351409       -0.0003046008
	            -0.0002193729        0.0000543449        0.0003046008
	             0.0002193729       -0.0000543449        0.0003046008
	            -0.0001685735        0.0000351409       -0.0003046008

	---Fragment 1 Intrafragment Coordinates---
	 - Coordinate -           - BOHR/RAD -       - ANG/DEG -
	 R(1,2)           =         1.791557	       0.948051
	 R(2,3)           =         2.633799	       1.393746
	 R(3,4)           =         1.791557	       0.948051
	 B(1,2,3)         =         1.782757	     102.144433
	 B(2,3,4)         =         1.782757	     102.144433
	 D(1,2,3,4)       =         2.094400	     120.000281

	Current energy   :      -150.7866469597

	Energy change for the previous step:
		Projected    :        -0.0000000603
		Actual       :        -0.0000000322

	Performing BFGS update.
	Previous computed or guess Hessian on step 1.
	Denominators (dg)(dq) or (dq)(dq) are very small.
	 Skipping Hessian update for step 5.
	Steps to be used in Hessian update: 4 3
	Adding user-defined constraint: Fragment 1; Coordinate 6:
		Value =     2.094400; Fixed value    =     2.094400
		Force =    -0.000000; Force constant =     0.625000
	Removing off-diagonal coupling between coordinate 6 and others.
	Taking RFO optimization step.
	Going to follow RFO solution 1.
	Using RFO vector 1.
	Norm of target step-size    0.00004
	Projected energy change by RFO approximation:        -0.0000000000

	Back-transformation to cartesian coordinates...
	Successfully converged to displaced geometry.

	--- Internal Coordinate Step in ANG or DEG, aJ/ANG or AJ/DEG ---
	 ---------------------------------------------------------------------------
	   Coordinate                Previous        Force       Change         New 
	   ----------                --------       ------       ------       ------
	    1 R(1,2)          =      0.948051     0.000032     0.000004     0.948055
	    2 R(2,3)          =      1.393746    -0.000079    -0.000014     1.393732
	    3 R(3,4)          =      0.948051     0.000032     0.000004     0.948055
	    4 B(1,2,3)        =    102.144433     0.000000     0.001319   102.145752
	    5 B(2,3,4)        =    102.144433     0.000000     0.001319   102.145752
	    6 D(1,2,3,4)      =    120.000281    -0.000000    -0.000000   120.000281
	 ---------------------------------------------------------------------------
	Successfully symmetrized geometry.
	 Forces used to impose fixed constraints are not included.
	  Forces zeroed: 6 

  ==> Convergence Check <==

  Measures of convergence in internal coordinates in au.
  Criteria marked as inactive (o), active & met (*), and active & unmet ( ).
  ---------------------------------------------------------------------------------------------
   Step     Total Energy     Delta E     MAX Force     RMS Force      MAX Disp      RMS Disp   
  ---------------------------------------------------------------------------------------------
    Convergence Criteria             o    1.50e-05 *    1.00e-05 *    6.00e-05 *    4.00e-05 *
  ---------------------------------------------------------------------------------------------
      6    -150.78664696   -3.22e-08 o    9.58e-06 *    5.42e-06 *    2.63e-05 *    1.75e-05 *  ~
  ---------------------------------------------------------------------------------------------


  **** Optimization is complete! (in 6 steps) ****

  ==> Optimization Summary <==

  Measures of convergence in internal coordinates in au.
  --------------------------------------------------------------------------------------------------------------- ~
   Step         Total Energy             Delta E       MAX Force       RMS Force        MAX Disp        RMS Disp  ~
  --------------------------------------------------------------------------------------------------------------- ~
      1    -150.780593228825   -150.780593228825      0.06554966      0.04227346      0.05901067      0.04077002  ~
      2    -150.785904491315     -0.005311262491      0.02061550      0.01485360      0.03884075      0.02742563  ~
      3    -150.786626374042     -0.000721882726      0.00280452      0.00181793      0.01173526      0.00745172  ~
      4    -150.786633239506     -0.000006865464      0.00192760      0.00135393      0.00595746      0.00358195  ~
      5    -150.786646927459     -0.000013687953      0.00010495      0.00007185      0.00022324      0.00014882  ~
      6    -150.786646959687     -0.000000032228      0.00000958      0.00000542      0.00002631      0.00001754  ~
  --------------------------------------------------------------------------------------------------------------- ~

	Writing optimization data to binary file.
	Final energy is   -150.7866469596872
	Final (previous) structure:
	Cartesian Geometry (in Angstrom)
	    H     0.9532906466   0.7340955629   0.4359464826
	    O     0.1276729186   0.6850779528  -0.0274685916
	    O    -0.1276729186  -0.6850779528  -0.0274685916
	    H    -0.9532906466  -0.7340955629   0.4359464826
	Saving final (previous) structure.
			--------------------------
			 OPTKING Finished Execution 
			--------------------------

    Final optimized geometry and variables:
    Molecular point group: c2
    Full point group: C2

    Geometry (in Angstrom), charge = 0, multiplicity = 1:

    H       
    O             1    0.948051
    O             2    1.393746      1  102.144433
    H             3    0.948051      2  102.144433      1  120.000281

	Cleaning optimization helper files.
	Int. Coord. RHF opt of HOOH with H-O-O-H fixed to 120, energy.....PASSED

*** Psi4 exiting successfully. Buy a developer a beer!
