
    -----------------------------------------------------------------------
          Psi4: An Open-Source Ab Initio Electronic Structure Package
                               Psi4 1.9a1.dev27 

                         Git: Rev {lsda_hessian} 1fbe585 dirty


    D. G. A. Smith, L. A. Burns, A. C. Simmonett, R. M. Parrish,
    M. C. Schieber, R. Galvelis, P. Kraus, H. Kruse, R. Di Remigio,
    A. Alenaizan, A. M. James, S. Lehtola, J. P. Misiewicz, M. Scheurer,
    R. A. Shaw, J. B. Schriber, Y. Xie, Z. L. Glick, D. A. Sirianni,
    J. S. O'Brien, J. M. Waldrop, A. Kumar, E. G. Hohenstein,
    B. P. Pritchard, B. R. Brooks, H. F. Schaefer III, A. Yu. Sokolov,
    K. Patkowski, A. E. DePrince III, U. Bozkaya, R. A. King,
    F. A. Evangelista, J. M. Turney, T. D. Crawford, C. D. Sherrill,
    J. Chem. Phys. 152(18) 184108 (2020). https://doi.org/10.1063/5.0006002

                            Additional Code Authors
    E. T. Seidl, C. L. Janssen, E. F. Valeev, M. L. Leininger,
    J. F. Gonthier, R. M. Richard, H. R. McAlexander, M. Saitow, X. Wang,
    P. Verma, M. H. Lechner, A. Jiang, S. Behnle, A. G. Heide,
    M. F. Herbst, and D. L. Poole

             Previous Authors, Complete List of Code Contributors,
                       and Citations for Specific Modules
    https://github.com/psi4/psi4/blob/master/codemeta.json
    https://github.com/psi4/psi4/graphs/contributors
    http://psicode.org/psi4manual/master/introduction.html#citing-psifour

    -----------------------------------------------------------------------


    Psi4 started on: Thursday, 29 June 2023 02:45PM

    Process ID: 17450
    Host:       jonathons-mbp.wireless.emory.edu
    PSIDATADIR: /Users/jonathonmisiewicz/psi4/objdir/stage/share/psi4
    Memory:     500.0 MiB
    Threads:    1
    
  ==> Input File <==

--------------------------------------------------------------------------
#! Analytic UKS SVWN frequencies, compared to finite difference values

molecule {
    1 2
    O            0.000000000000    -0.000000000000    -0.076528551557
    H            0.000000000000    -0.769841603721     0.607281824213
    H           -0.000000000000     0.769841603721     0.607281824213
}

set {
  d_convergence 12
  dft_spherical_points 302
  dft_radial_points    75
  scf_type pk
  reference uks
}

method = 'SVWN/sto-3g'

Efd, fdwfn = freq(method, dertype=1, return_wfn=True)
Ean, anwfn = freq(method, return_wfn=True)
fdwfn.frequencies().print_out()
anwfn.frequencies().print_out()

compare_arrays(fdwfn.frequencies(), anwfn.frequencies(), f"{method} frequencies, Analytic vs. Finite Difference", atol=0.1)  #TEST
--------------------------------------------------------------------------

         ----------------------------------------------------------
                                   FINDIF
                     R. A. King and Jonathon Misiewicz
         ----------------------------------------------------------

  Using finite-differences of gradients to determine vibrational frequencies and 
  normal modes. Resulting frequencies are only valid at stationary points.
    Generating geometries for use with 3-point formula.
    Displacement size will be 5.00e-03.
    Number of atoms is 3.
    Number of irreps is 4.
    Number of SALCs is 6.
    Translations projected? 1. Rotations projected? 0.
    Index of SALCs per irrep:
      1 :  0  1 
      2 :  2 
      3 :  3 
      4 :  4  5 
    Number of SALCs per irrep:
      Irrep 1: 2
      Irrep 2: 1
      Irrep 3: 1
      Irrep 4: 2
    Number of geometries (including reference) is 9.
    Number of displacements per irrep:
      Irrep 1: 4
      Irrep 2: 1
      Irrep 3: 1
      Irrep 4: 2
 9 displacements needed ...

  //>>>>>>>>>>>>>>>>>>>>>>>>>>>>>>>>>>>//
  //    FiniteDifference Computations  //
  //<<<<<<<<<<<<<<<<<<<<<<<<<<<<<<<<<<<//


    -----------------------------------------------------------------------
          Psi4: An Open-Source Ab Initio Electronic Structure Package
                               Psi4 1.9a1.dev27 

                         Git: Rev {lsda_hessian} 1fbe585 dirty


    D. G. A. Smith, L. A. Burns, A. C. Simmonett, R. M. Parrish,
    M. C. Schieber, R. Galvelis, P. Kraus, H. Kruse, R. Di Remigio,
    A. Alenaizan, A. M. James, S. Lehtola, J. P. Misiewicz, M. Scheurer,
    R. A. Shaw, J. B. Schriber, Y. Xie, Z. L. Glick, D. A. Sirianni,
    J. S. O'Brien, J. M. Waldrop, A. Kumar, E. G. Hohenstein,
    B. P. Pritchard, B. R. Brooks, H. F. Schaefer III, A. Yu. Sokolov,
    K. Patkowski, A. E. DePrince III, U. Bozkaya, R. A. King,
    F. A. Evangelista, J. M. Turney, T. D. Crawford, C. D. Sherrill,
    J. Chem. Phys. 152(18) 184108 (2020). https://doi.org/10.1063/5.0006002

                            Additional Code Authors
    E. T. Seidl, C. L. Janssen, E. F. Valeev, M. L. Leininger,
    J. F. Gonthier, R. M. Richard, H. R. McAlexander, M. Saitow, X. Wang,
    P. Verma, M. H. Lechner, A. Jiang, S. Behnle, A. G. Heide,
    M. F. Herbst, and D. L. Poole

             Previous Authors, Complete List of Code Contributors,
                       and Citations for Specific Modules
    https://github.com/psi4/psi4/blob/master/codemeta.json
    https://github.com/psi4/psi4/graphs/contributors
    http://psicode.org/psi4manual/master/introduction.html#citing-psifour

    -----------------------------------------------------------------------


    Psi4 started on: Thursday, 29 June 2023 02:45PM

    Process ID: 17450
    Host:       jonathons-mbp.wireless.emory.edu
    PSIDATADIR: /Users/jonathonmisiewicz/psi4/objdir/stage/share/psi4
    Memory:     500.0 MiB
    Threads:    1
    
  ==> Input QCSchema <==

--------------------------------------------------------------------------
{'driver': 'gradient',
 'extras': {'psiapi': True, 'wfn_qcvars_only': True},
 'id': None,
 'keywords': {'DFT_RADIAL_POINTS': 75,
              'DFT_SPHERICAL_POINTS': 302,
              'D_CONVERGENCE': 1e-12,
              'PARENT_SYMMETRY': 'C2v(Z)',
              'REFERENCE': 'UKS',
              'SCF_TYPE': 'PK',
              'SCF__E_CONVERGENCE': 1e-08,
              'function_kwargs': {}},
 'model': {'basis': 'sto-3g', 'method': 'svwn'},
 'molecule': {'atom_labels': ['', '', ''],
              'atomic_numbers': [8, 1, 1],
              'fix_com': True,
              'fix_orientation': True,
              'fragment_charges': [1.0],
              'fragment_multiplicities': [2],
              'fragments': [[0, 1, 2]],
              'geometry': [0.0, 0.0, -0.14461800322141685, 4.4540091524997516e-17, -1.454789791015926,
                           1.1475963287302868, -4.4540091524997516e-17, 1.454789791015926, 1.1475963287302868],
              'mass_numbers': [16, 1, 1],
              'masses': [15.99491461957, 1.00782503223, 1.00782503223],
              'molecular_charge': 1.0,
              'molecular_multiplicity': 2,
              'name': 'H2O',
              'provenance': {'creator': 'QCElemental',
                             'routine': 'qcelemental.molparse.from_string',
                             'version': 'v0.25.1'},
              'real': [True, True, True],
              'schema_name': 'qcschema_molecule',
              'schema_version': 2,
              'symbols': ['O', 'H', 'H'],
              'validated': True},
 'protocols': {'stdout': True},
 'provenance': {'creator': 'QCElemental', 'routine': 'qcelemental.models.results', 'version': 'v0.25.1'},
 'schema_name': 'qcschema_input',
 'schema_version': 1}
--------------------------------------------------------------------------

Scratch directory: /tmp/
gradient() will perform analytic gradient computation.
   => Libint2 <=

    Primary   basis highest AM E, G, H:  5, 4, 3
    Auxiliary basis highest AM E, G, H:  6, 5, 4
    Onebody   basis highest AM E, G, H:  6, 5, 4
    Solid Harmonics ordering:            gaussian

*** tstart() called on jonathons-mbp.wireless.emory.edu
*** at Thu Jun 29 14:45:43 2023

   => Loading Basis Set <=

    Name: STO-3G
    Role: ORBITAL
    Keyword: BASIS
    atoms 1   entry O          line    81 file /Users/jonathonmisiewicz/psi4/objdir/stage/share/psi4/basis/sto-3g.gbs 
    atoms 2-3 entry H          line    19 file /Users/jonathonmisiewicz/psi4/objdir/stage/share/psi4/basis/sto-3g.gbs 


         ---------------------------------------------------------
                                   SCF
               by Justin Turney, Rob Parrish, Andy Simmonett
                          and Daniel G. A. Smith
                              UKS Reference
                        1 Threads,    500 MiB Core
         ---------------------------------------------------------

  ==> Geometry <==

    Molecular point group: c2v
    Full point group: C2v

    Geometry (in Bohr), charge = 1, multiplicity = 2:

       Center              X                  Y                   Z               Mass       
    ------------   -----------------  -----------------  -----------------  -----------------
         O            0.000000000000     0.000000000000    -0.144618003221    15.994914619570
         H            0.000000000000    -1.454789791016     1.147596328730     1.007825032230
         H           -0.000000000000     1.454789791016     1.147596328730     1.007825032230

  Running in c2v symmetry.

  Rotational constants: A =     20.13981  B =     14.11168  C =      8.29764 [cm^-1]
  Rotational constants: A = 603776.34397  B = 423057.41125  C = 248756.97332 [MHz]
  Nuclear repulsion =    8.566429587941965

  Charge       = 1
  Multiplicity = 2
  Electrons    = 9
  Nalpha       = 5
  Nbeta        = 4

  ==> Algorithm <==

  SCF Algorithm Type is PK.
  DIIS enabled.
  MOM disabled.
  Fractional occupation disabled.
  Guess Type is SAD.
  Energy threshold   = 1.00e-08
  Density threshold  = 1.00e-12
  Integral threshold = 1.00e-12

  ==> Primary Basis <==

  Basis Set: STO-3G
    Blend: STO-3G
    Number of shells: 5
    Number of basis functions: 7
    Number of Cartesian functions: 7
    Spherical Harmonics?: true
    Max angular momentum: 1

  ==> DFT Potential <==

   => LibXC <=

    Version 6.2.0
    S. Lehtola, C. Steigemann, M. J.T. Oliveira, and M. A.L. Marques.,  SoftwareX 7, 1–5 (2018) (10.1016/j.softx.2017.11.002)

   => Composite Functional: SVWN <= 

    Slater exchange
    Vosko, Wilk & Nusair (VWN5_RPA)
    P. A. M. Dirac.,  Math. Proc. Cambridge Philos. Soc. 26, 376 (1930) (10.1017/S0305004100016108)
    F. Bloch.,  Z. Phys. 57, 545 (1929) (10.1007/BF01340281)
    S. H. Vosko, L. Wilk, and M. Nusair.,  Can. J. Phys. 58, 1200 (1980) (10.1139/p80-159)

    Deriv               =              1
    GGA                 =          FALSE
    Meta                =          FALSE

    Exchange Hybrid     =          FALSE
    MP2 Hybrid          =          FALSE

   => Exchange Functionals <=

    1.0000         XC_LDA_X

   => Correlation Functionals <=

    1.0000   XC_LDA_C_VWN_RPA

   => LibXC Density Thresholds  <==

    XC_LDA_C_VWN_RPA:  1.00E-15 
    XC_LDA_X:  1.00E-15 

   => Molecular Quadrature <=

    Radial Scheme          =       TREUTLER
    Pruning Scheme         =           NONE
    Nuclear Scheme         =       TREUTLER

    Blocking Scheme        =         OCTREE
    BS radius alpha        =              1
    Pruning alpha          =              1
    Radial Points          =             75
    Spherical Points       =            302
    Total Points           =          65863
    Total Blocks           =            548
    Max Points             =            256
    Max Functions          =              7
    Weights Tolerance      =       1.00E-15

  ==> Integral Setup <==

  Using in-core PK algorithm.
   Calculation information:
      Number of atoms:                   3
      Number of AO shells:               5
      Number of primitives:             15
      Number of atomic orbitals:         7
      Number of basis functions:         7

      Integral cutoff                 1.00e-12
      Number of threads:                 1

  Performing in-core PK
  Using 812 doubles for integral storage.
  We computed 120 shell quartets total.
  Whereas there are 120 unique shell quartets.

  ==> DiskJK: Disk-Based J/K Matrices <==

    J tasked:                  Yes
    K tasked:                   No
    wK tasked:                  No
    Memory [MiB]:              371
    Schwarz Cutoff:          1E-12

    OpenMP threads:              1

  Cached 100.0% of DFT collocation blocks in 0.003 [GiB].

  Minimum eigenvalue in the overlap matrix is 3.5605383316E-01.
  Reciprocal condition number of the overlap matrix is 2.1208196232E-01.
    Using symmetric orthogonalization.

  ==> Pre-Iterations <==

  SCF Guess: Superposition of Atomic Densities via on-the-fly atomic UHF (no occupation information).

   -------------------------
    Irrep   Nso     Nmo    
   -------------------------
     A1         4       4 
     A2         0       0 
     B1         1       1 
     B2         2       2 
   -------------------------
    Total       7       7
   -------------------------

  ==> Iterations <==

                        Total Energy        Delta E     RMS |[F,P]|

   @UKS iter SAD:   -74.49825721880350   -7.44983e+01   0.00000e+00 
   @UKS iter   1:   -74.53808843465362   -3.98312e-02   4.96811e-02 ADIIS/DIIS
   @UKS iter   2:   -74.54498462683898   -6.89619e-03   4.03251e-02 ADIIS/DIIS
   @UKS iter   3:   -74.56876091537620   -2.37763e-02   4.38788e-03 ADIIS/DIIS
   @UKS iter   4:   -74.56905936611059   -2.98451e-04   2.55772e-04 ADIIS/DIIS
   @UKS iter   5:   -74.56906096935643   -1.60325e-06   1.75550e-05 DIIS
   @UKS iter   6:   -74.56906097445463   -5.09820e-09   1.89796e-07 DIIS
   @UKS iter   7:   -74.56906097445517   -5.40012e-13   1.87172e-09 DIIS
   @UKS iter   8:   -74.56906097445520   -2.84217e-14   2.38514e-10 DIIS
   @UKS iter   9:   -74.56906097445518    1.42109e-14   5.67357e-12 DIIS
   @UKS iter  10:   -74.56906097445517    1.42109e-14   1.55782e-14 DIIS
  Energy and wave function converged.


  ==> Post-Iterations <==

   Electrons on quadrature grid:
      Nalpha   =    4.9999998080 ; deviation = -1.920e-07
      Nbeta    =    3.9999998948 ; deviation = -1.052e-07
      Ntotal   =    8.9999997028 ; deviation = -2.972e-07 

   @Spin Contamination Metric:   1.923903856E-03
   @S^2 Expected:                7.500000000E-01
   @S^2 Observed:                7.519239039E-01
   @S   Expected:                5.000000000E-01
   @S   Observed:                5.000000000E-01

    Orbital Energies [Eh]
    ---------------------

    Alpha Occupied:                                                       

       1A1   -19.082952     2A1    -1.437310     1B2    -0.908815  
       3A1    -0.774704     1B1    -0.771238  

    Alpha Virtual:                                                        

       4A1    -0.253588     2B2    -0.185395  

    Beta Occupied:                                                        

       1A1   -19.063901     2A1    -1.383538     1B2    -0.883956  
       3A1    -0.739383  

    Beta Virtual:                                                         

       1B1    -0.655257     4A1    -0.236785     2B2    -0.172006  

    Final Occupation by Irrep:
             A1    A2    B1    B2 
    DOCC [     3,    0,    0,    1 ]
    SOCC [     0,    0,    1,    0 ]
    NA   [     3,    0,    1,    1 ]
    NB   [     3,    0,    0,    1 ]

  @UKS Final Energy:   -74.56906097445517

   => Energetics <=

    Nuclear Repulsion Energy =              8.5664295879419647
    One-Electron Energy =                -115.4246682894461173
    Two-Electron Energy =                  40.7166869586121578
    DFT Exchange-Correlation Energy =      -8.4275092315631852
    Empirical Dispersion Energy =           0.0000000000000000
    VV10 Nonlocal Energy =                  0.0000000000000000
    Total Energy =                        -74.5690609744551693

  UHF NO Occupations:
  HONO-2 :    3 A1 1.9995502
  HONO-1 :    1 B2 1.9994877
  HONO-0 :    1 B1 1.0000000
  LUNO+0 :    2 B2 0.0005123
  LUNO+1 :    4 A1 0.0004498


Computation Completed


Properties will be evaluated at   0.000000,   0.000000,   0.000000 [a0]

Properties computed using the SCF density matrix


 Multipole Moments:

 ------------------------------------------------------------------------------------
     Multipole            Electronic (a.u.)      Nuclear  (a.u.)        Total (a.u.)
 ------------------------------------------------------------------------------------

 L = 1.  Multiply by 2.5417464519 to convert [e a0] to [Debye]
 Dipole X            :          0.0000000            0.0000000            0.0000000
 Dipole Y            :          0.0000000            0.0000000            0.0000000
 Dipole Z            :         -0.0232177            1.1382486            1.1150309
 Magnitude           :                                                    1.1150309

 ------------------------------------------------------------------------------------

*** tstop() called on jonathons-mbp.wireless.emory.edu at Thu Jun 29 14:45:44 2023
Module time:
	user time   =       0.87 seconds =       0.01 minutes
	system time =       0.10 seconds =       0.00 minutes
	total time  =          1 seconds =       0.02 minutes
Total time:
	user time   =       0.87 seconds =       0.01 minutes
	system time =       0.10 seconds =       0.00 minutes
	total time  =          1 seconds =       0.02 minutes

*** tstart() called on jonathons-mbp.wireless.emory.edu
*** at Thu Jun 29 14:45:44 2023


         ------------------------------------------------------------
                                   SCF GRAD                          
                          Rob Parrish, Justin Turney,                
                       Andy Simmonett, and Alex Sokolov              
         ------------------------------------------------------------

  ==> Geometry <==

    Molecular point group: c2v
    Full point group: C2v

    Geometry (in Bohr), charge = 1, multiplicity = 2:

       Center              X                  Y                   Z               Mass       
    ------------   -----------------  -----------------  -----------------  -----------------
         O            0.000000000000     0.000000000000    -0.144618003221    15.994914619570
         H            0.000000000000    -1.454789791016     1.147596328730     1.007825032230
         H           -0.000000000000     1.454789791016     1.147596328730     1.007825032230

  Nuclear repulsion =    8.566429587941965

  ==> Basis Set <==

  Basis Set: STO-3G
    Blend: STO-3G
    Number of shells: 5
    Number of basis functions: 7
    Number of Cartesian functions: 7
    Spherical Harmonics?: true
    Max angular momentum: 1

  ==> DirectJKGrad: Integral-Direct SCF Gradients <==

    Gradient:                    1
    J tasked:                  Yes
    K tasked:                   No
    wK tasked:                  No
    Integrals threads:           1
    Schwarz Cutoff:          1E-12

  ==> DFT Potential <==

   => LibXC <=

    Version 6.2.0
    S. Lehtola, C. Steigemann, M. J.T. Oliveira, and M. A.L. Marques.,  SoftwareX 7, 1–5 (2018) (10.1016/j.softx.2017.11.002)

   => Composite Functional: SVWN <= 

    Slater exchange
    Vosko, Wilk & Nusair (VWN5_RPA)
    P. A. M. Dirac.,  Math. Proc. Cambridge Philos. Soc. 26, 376 (1930) (10.1017/S0305004100016108)
    F. Bloch.,  Z. Phys. 57, 545 (1929) (10.1007/BF01340281)
    S. H. Vosko, L. Wilk, and M. Nusair.,  Can. J. Phys. 58, 1200 (1980) (10.1139/p80-159)

    Deriv               =              1
    GGA                 =          FALSE
    Meta                =          FALSE

    Exchange Hybrid     =          FALSE
    MP2 Hybrid          =          FALSE

   => Exchange Functionals <=

    1.0000         XC_LDA_X

   => Correlation Functionals <=

    1.0000   XC_LDA_C_VWN_RPA

   => LibXC Density Thresholds  <==

    XC_LDA_C_VWN_RPA:  1.00E-15 
    XC_LDA_X:  1.00E-15 

   => Molecular Quadrature <=

    Radial Scheme          =       TREUTLER
    Pruning Scheme         =           NONE
    Nuclear Scheme         =       TREUTLER

    Blocking Scheme        =         OCTREE
    BS radius alpha        =              1
    Pruning alpha          =              1
    Radial Points          =             75
    Spherical Points       =            302
    Total Points           =          65863
    Total Blocks           =            548
    Max Points             =            256
    Max Functions          =              7
    Weights Tolerance      =       1.00E-15


  -Total Gradient:
     Atom            X                  Y                   Z
    ------   -----------------  -----------------  -----------------
       1        0.000000000000     0.000000000000     0.033212778865
       2       -0.000000000000     0.043868175340    -0.016605693415
       3        0.000000000000    -0.043868175340    -0.016605693415


*** tstop() called on jonathons-mbp.wireless.emory.edu at Thu Jun 29 14:45:44 2023
Module time:
	user time   =       0.08 seconds =       0.00 minutes
	system time =       0.00 seconds =       0.00 minutes
	total time  =          0 seconds =       0.00 minutes
Total time:
	user time   =       0.95 seconds =       0.02 minutes
	system time =       0.10 seconds =       0.00 minutes
	total time  =          1 seconds =       0.02 minutes

    Psi4 stopped on: Thursday, 29 June 2023 02:45PM
    Psi4 wall time for execution: 0:00:01.18


    -----------------------------------------------------------------------
          Psi4: An Open-Source Ab Initio Electronic Structure Package
                               Psi4 1.9a1.dev27 

                         Git: Rev {lsda_hessian} 1fbe585 dirty


    D. G. A. Smith, L. A. Burns, A. C. Simmonett, R. M. Parrish,
    M. C. Schieber, R. Galvelis, P. Kraus, H. Kruse, R. Di Remigio,
    A. Alenaizan, A. M. James, S. Lehtola, J. P. Misiewicz, M. Scheurer,
    R. A. Shaw, J. B. Schriber, Y. Xie, Z. L. Glick, D. A. Sirianni,
    J. S. O'Brien, J. M. Waldrop, A. Kumar, E. G. Hohenstein,
    B. P. Pritchard, B. R. Brooks, H. F. Schaefer III, A. Yu. Sokolov,
    K. Patkowski, A. E. DePrince III, U. Bozkaya, R. A. King,
    F. A. Evangelista, J. M. Turney, T. D. Crawford, C. D. Sherrill,
    J. Chem. Phys. 152(18) 184108 (2020). https://doi.org/10.1063/5.0006002

                            Additional Code Authors
    E. T. Seidl, C. L. Janssen, E. F. Valeev, M. L. Leininger,
    J. F. Gonthier, R. M. Richard, H. R. McAlexander, M. Saitow, X. Wang,
    P. Verma, M. H. Lechner, A. Jiang, S. Behnle, A. G. Heide,
    M. F. Herbst, and D. L. Poole

             Previous Authors, Complete List of Code Contributors,
                       and Citations for Specific Modules
    https://github.com/psi4/psi4/blob/master/codemeta.json
    https://github.com/psi4/psi4/graphs/contributors
    http://psicode.org/psi4manual/master/introduction.html#citing-psifour

    -----------------------------------------------------------------------


    Psi4 started on: Thursday, 29 June 2023 02:45PM

    Process ID: 17450
    Host:       jonathons-mbp.wireless.emory.edu
    PSIDATADIR: /Users/jonathonmisiewicz/psi4/objdir/stage/share/psi4
    Memory:     500.0 MiB
    Threads:    1
    
  ==> Input QCSchema <==

--------------------------------------------------------------------------
{'driver': 'gradient',
 'extras': {'psiapi': True, 'wfn_qcvars_only': True},
 'id': None,
 'keywords': {'DFT_RADIAL_POINTS': 75,
              'DFT_SPHERICAL_POINTS': 302,
              'D_CONVERGENCE': 1e-12,
              'PARENT_SYMMETRY': 'C2v(Z)',
              'REFERENCE': 'UKS',
              'SCF_TYPE': 'PK',
              'SCF__E_CONVERGENCE': 1e-08,
              'function_kwargs': {'write_orbitals': False}},
 'model': {'basis': 'sto-3g', 'method': 'svwn'},
 'molecule': {'atom_labels': ['', '', ''],
              'atomic_numbers': [8, 1, 1],
              'fix_com': True,
              'fix_orientation': True,
              'fragment_charges': [1.0],
              'fragment_multiplicities': [2],
              'fragments': [[0, 1, 2]],
              'geometry': [0.0, 0.0, -0.1450362406973276, 4.4540091524997516e-17, -1.454789791015926,
                           1.1509151948548435, -4.4540091524997516e-17, 1.454789791015926, 1.1509151948548435],
              'mass_numbers': [16, 1, 1],
              'masses': [15.99491461957, 1.00782503223, 1.00782503223],
              'molecular_charge': 1.0,
              'molecular_multiplicity': 2,
              'name': 'H2O',
              'provenance': {'creator': 'QCElemental',
                             'routine': 'qcelemental.molparse.from_string',
                             'version': 'v0.25.1'},
              'real': [True, True, True],
              'schema_name': 'qcschema_molecule',
              'schema_version': 2,
              'symbols': ['O', 'H', 'H'],
              'validated': True},
 'protocols': {'stdout': True},
 'provenance': {'creator': 'QCElemental', 'routine': 'qcelemental.models.results', 'version': 'v0.25.1'},
 'schema_name': 'qcschema_input',
 'schema_version': 1}
--------------------------------------------------------------------------

Scratch directory: /tmp/
gradient() will perform analytic gradient computation.
   => Libint2 <=

    Primary   basis highest AM E, G, H:  5, 4, 3
    Auxiliary basis highest AM E, G, H:  6, 5, 4
    Onebody   basis highest AM E, G, H:  6, 5, 4
    Solid Harmonics ordering:            gaussian

*** tstart() called on jonathons-mbp.wireless.emory.edu
*** at Thu Jun 29 14:45:44 2023

   => Loading Basis Set <=

    Name: STO-3G
    Role: ORBITAL
    Keyword: BASIS
    atoms 1   entry O          line    81 file /Users/jonathonmisiewicz/psi4/objdir/stage/share/psi4/basis/sto-3g.gbs 
    atoms 2-3 entry H          line    19 file /Users/jonathonmisiewicz/psi4/objdir/stage/share/psi4/basis/sto-3g.gbs 


         ---------------------------------------------------------
                                   SCF
               by Justin Turney, Rob Parrish, Andy Simmonett
                          and Daniel G. A. Smith
                              UKS Reference
                        1 Threads,    500 MiB Core
         ---------------------------------------------------------

  ==> Geometry <==

    Molecular point group: c2v
    Full point group: C2v

    Geometry (in Bohr), charge = 1, multiplicity = 2:

       Center              X                  Y                   Z               Mass       
    ------------   -----------------  -----------------  -----------------  -----------------
         O            0.000000000000     0.000000000000    -0.145036240697    15.994914619570
         H            0.000000000000    -1.454789791016     1.150915194855     1.007825032230
         H           -0.000000000000     1.454789791016     1.150915194855     1.007825032230

  Running in c2v symmetry.

  Rotational constants: A =     20.02383  B =     14.11168  C =      8.27788 [cm^-1]
  Rotational constants: A = 600299.17444  B = 423057.41125  C = 248164.73384 [MHz]
  Nuclear repulsion =    8.555946833629532

  Charge       = 1
  Multiplicity = 2
  Electrons    = 9
  Nalpha       = 5
  Nbeta        = 4

  ==> Algorithm <==

  SCF Algorithm Type is PK.
  DIIS enabled.
  MOM disabled.
  Fractional occupation disabled.
  Guess Type is SAD.
  Energy threshold   = 1.00e-08
  Density threshold  = 1.00e-12
  Integral threshold = 1.00e-12

  ==> Primary Basis <==

  Basis Set: STO-3G
    Blend: STO-3G
    Number of shells: 5
    Number of basis functions: 7
    Number of Cartesian functions: 7
    Spherical Harmonics?: true
    Max angular momentum: 1

  ==> DFT Potential <==

   => LibXC <=

    Version 6.2.0
    S. Lehtola, C. Steigemann, M. J.T. Oliveira, and M. A.L. Marques.,  SoftwareX 7, 1–5 (2018) (10.1016/j.softx.2017.11.002)

   => Composite Functional: SVWN <= 

    Slater exchange
    Vosko, Wilk & Nusair (VWN5_RPA)
    P. A. M. Dirac.,  Math. Proc. Cambridge Philos. Soc. 26, 376 (1930) (10.1017/S0305004100016108)
    F. Bloch.,  Z. Phys. 57, 545 (1929) (10.1007/BF01340281)
    S. H. Vosko, L. Wilk, and M. Nusair.,  Can. J. Phys. 58, 1200 (1980) (10.1139/p80-159)

    Deriv               =              1
    GGA                 =          FALSE
    Meta                =          FALSE

    Exchange Hybrid     =          FALSE
    MP2 Hybrid          =          FALSE

   => Exchange Functionals <=

    1.0000         XC_LDA_X

   => Correlation Functionals <=

    1.0000   XC_LDA_C_VWN_RPA

   => LibXC Density Thresholds  <==

    XC_LDA_C_VWN_RPA:  1.00E-15 
    XC_LDA_X:  1.00E-15 

   => Molecular Quadrature <=

    Radial Scheme          =       TREUTLER
    Pruning Scheme         =           NONE
    Nuclear Scheme         =       TREUTLER

    Blocking Scheme        =         OCTREE
    BS radius alpha        =              1
    Pruning alpha          =              1
    Radial Points          =             75
    Spherical Points       =            302
    Total Points           =          65863
    Total Blocks           =            548
    Max Points             =            254
    Max Functions          =              7
    Weights Tolerance      =       1.00E-15

  ==> Integral Setup <==

  Using in-core PK algorithm.
   Calculation information:
      Number of atoms:                   3
      Number of AO shells:               5
      Number of primitives:             15
      Number of atomic orbitals:         7
      Number of basis functions:         7

      Integral cutoff                 1.00e-12
      Number of threads:                 1

  Performing in-core PK
  Using 812 doubles for integral storage.
  We computed 120 shell quartets total.
  Whereas there are 120 unique shell quartets.

  ==> DiskJK: Disk-Based J/K Matrices <==

    J tasked:                  Yes
    K tasked:                   No
    wK tasked:                  No
    Memory [MiB]:              371
    Schwarz Cutoff:          1E-12

    OpenMP threads:              1

  Cached 100.0% of DFT collocation blocks in 0.003 [GiB].

  Minimum eigenvalue in the overlap matrix is 3.5686538539E-01.
  Reciprocal condition number of the overlap matrix is 2.1267833529E-01.
    Using symmetric orthogonalization.

  ==> Pre-Iterations <==

  SCF Guess: Superposition of Atomic Densities via on-the-fly atomic UHF (no occupation information).

   -------------------------
    Irrep   Nso     Nmo    
   -------------------------
     A1         4       4 
     A2         0       0 
     B1         1       1 
     B2         2       2 
   -------------------------
    Total       7       7
   -------------------------

  ==> Iterations <==

                        Total Energy        Delta E     RMS |[F,P]|

   @UKS iter SAD:   -74.49666146347525   -7.44967e+01   0.00000e+00 
   @UKS iter   1:   -74.53812103817714   -4.14596e-02   4.97344e-02 ADIIS/DIIS
   @UKS iter   2:   -74.54486617855051   -6.74514e-03   4.04985e-02 ADIIS/DIIS
   @UKS iter   3:   -74.56888089914021   -2.40147e-02   4.38937e-03 ADIIS/DIIS
   @UKS iter   4:   -74.56918012820942   -2.99229e-04   2.56628e-04 ADIIS/DIIS
   @UKS iter   5:   -74.56918175209634   -1.62389e-06   1.79941e-05 DIIS
   @UKS iter   6:   -74.56918175744704   -5.35070e-09   1.94480e-07 DIIS
   @UKS iter   7:   -74.56918175744761   -5.68434e-13   1.90155e-09 DIIS
   @UKS iter   8:   -74.56918175744757    4.26326e-14   2.45156e-10 DIIS
   @UKS iter   9:   -74.56918175744761   -4.26326e-14   5.89597e-12 DIIS
   @UKS iter  10:   -74.56918175744757    4.26326e-14   1.72110e-14 DIIS
  Energy and wave function converged.


  ==> Post-Iterations <==

   Electrons on quadrature grid:
      Nalpha   =    4.9999998015 ; deviation = -1.985e-07
      Nbeta    =    3.9999998890 ; deviation = -1.110e-07
      Ntotal   =    8.9999996905 ; deviation = -3.095e-07 

   @Spin Contamination Metric:   1.936982432E-03
   @S^2 Expected:                7.500000000E-01
   @S^2 Observed:                7.519369824E-01
   @S   Expected:                5.000000000E-01
   @S   Observed:                5.000000000E-01

    Orbital Energies [Eh]
    ---------------------

    Alpha Occupied:                                                       

       1A1   -19.082788     2A1    -1.436701     1B2    -0.907828  
       3A1    -0.774824     1B1    -0.770966  

    Alpha Virtual:                                                        

       4A1    -0.254418     2B2    -0.186528  

    Beta Occupied:                                                        

       1A1   -19.063734     2A1    -1.382910     1B2    -0.882963  
       3A1    -0.739523  

    Beta Virtual:                                                         

       1B1    -0.654975     4A1    -0.237629     2B2    -0.173176  

    Final Occupation by Irrep:
             A1    A2    B1    B2 
    DOCC [     3,    0,    0,    1 ]
    SOCC [     0,    0,    1,    0 ]
    NA   [     3,    0,    1,    1 ]
    NB   [     3,    0,    0,    1 ]

  @UKS Final Energy:   -74.56918175744757

   => Energetics <=

    Nuclear Repulsion Energy =              8.5559468336295321
    One-Electron Energy =                -115.4080256199016503
    Two-Electron Energy =                  40.7096446273572568
    DFT Exchange-Correlation Energy =      -8.4267475985327138
    Empirical Dispersion Energy =           0.0000000000000000
    VV10 Nonlocal Energy =                  0.0000000000000000
    Total Energy =                        -74.5691817574475664

  UHF NO Occupations:
  HONO-2 :    3 A1 1.9995473
  HONO-1 :    1 B2 1.9994840
  HONO-0 :    1 B1 1.0000000
  LUNO+0 :    2 B2 0.0005160
  LUNO+1 :    4 A1 0.0004527


Computation Completed


Properties will be evaluated at   0.000000,   0.000000,   0.000000 [a0]

Properties computed using the SCF density matrix


 Multipole Moments:

 ------------------------------------------------------------------------------------
     Multipole            Electronic (a.u.)      Nuclear  (a.u.)        Total (a.u.)
 ------------------------------------------------------------------------------------

 L = 1.  Multiply by 2.5417464519 to convert [e a0] to [Debye]
 Dipole X            :          0.0000000            0.0000000            0.0000000
 Dipole Y            :          0.0000000            0.0000000            0.0000000
 Dipole Z            :         -0.0249377            1.1415405            1.1166027
 Magnitude           :                                                    1.1166027

 ------------------------------------------------------------------------------------

*** tstop() called on jonathons-mbp.wireless.emory.edu at Thu Jun 29 14:45:45 2023
Module time:
	user time   =       0.73 seconds =       0.01 minutes
	system time =       0.04 seconds =       0.00 minutes
	total time  =          1 seconds =       0.02 minutes
Total time:
	user time   =       1.75 seconds =       0.03 minutes
	system time =       0.15 seconds =       0.00 minutes
	total time  =          2 seconds =       0.03 minutes

*** tstart() called on jonathons-mbp.wireless.emory.edu
*** at Thu Jun 29 14:45:45 2023


         ------------------------------------------------------------
                                   SCF GRAD                          
                          Rob Parrish, Justin Turney,                
                       Andy Simmonett, and Alex Sokolov              
         ------------------------------------------------------------

  ==> Geometry <==

    Molecular point group: c2v
    Full point group: C2v

    Geometry (in Bohr), charge = 1, multiplicity = 2:

       Center              X                  Y                   Z               Mass       
    ------------   -----------------  -----------------  -----------------  -----------------
         O            0.000000000000     0.000000000000    -0.145036240697    15.994914619570
         H            0.000000000000    -1.454789791016     1.150915194855     1.007825032230
         H           -0.000000000000     1.454789791016     1.150915194855     1.007825032230

  Nuclear repulsion =    8.555946833629532

  ==> Basis Set <==

  Basis Set: STO-3G
    Blend: STO-3G
    Number of shells: 5
    Number of basis functions: 7
    Number of Cartesian functions: 7
    Spherical Harmonics?: true
    Max angular momentum: 1

  ==> DirectJKGrad: Integral-Direct SCF Gradients <==

    Gradient:                    1
    J tasked:                  Yes
    K tasked:                   No
    wK tasked:                  No
    Integrals threads:           1
    Schwarz Cutoff:          1E-12

  ==> DFT Potential <==

   => LibXC <=

    Version 6.2.0
    S. Lehtola, C. Steigemann, M. J.T. Oliveira, and M. A.L. Marques.,  SoftwareX 7, 1–5 (2018) (10.1016/j.softx.2017.11.002)

   => Composite Functional: SVWN <= 

    Slater exchange
    Vosko, Wilk & Nusair (VWN5_RPA)
    P. A. M. Dirac.,  Math. Proc. Cambridge Philos. Soc. 26, 376 (1930) (10.1017/S0305004100016108)
    F. Bloch.,  Z. Phys. 57, 545 (1929) (10.1007/BF01340281)
    S. H. Vosko, L. Wilk, and M. Nusair.,  Can. J. Phys. 58, 1200 (1980) (10.1139/p80-159)

    Deriv               =              1
    GGA                 =          FALSE
    Meta                =          FALSE

    Exchange Hybrid     =          FALSE
    MP2 Hybrid          =          FALSE

   => Exchange Functionals <=

    1.0000         XC_LDA_X

   => Correlation Functionals <=

    1.0000   XC_LDA_C_VWN_RPA

   => LibXC Density Thresholds  <==

    XC_LDA_C_VWN_RPA:  1.00E-15 
    XC_LDA_X:  1.00E-15 

   => Molecular Quadrature <=

    Radial Scheme          =       TREUTLER
    Pruning Scheme         =           NONE
    Nuclear Scheme         =       TREUTLER

    Blocking Scheme        =         OCTREE
    BS radius alpha        =              1
    Pruning alpha          =              1
    Radial Points          =             75
    Spherical Points       =            302
    Total Points           =          65863
    Total Blocks           =            548
    Max Points             =            254
    Max Functions          =              7
    Weights Tolerance      =       1.00E-15


  -Total Gradient:
     Atom            X                  Y                   Z
    ------   -----------------  -----------------  -----------------
       1        0.000000000000    -0.000000000000     0.031437152109
       2       -0.000000000000     0.043092212851    -0.015717667529
       3        0.000000000000    -0.043092212851    -0.015717667529


*** tstop() called on jonathons-mbp.wireless.emory.edu at Thu Jun 29 14:45:45 2023
Module time:
	user time   =       0.07 seconds =       0.00 minutes
	system time =       0.00 seconds =       0.00 minutes
	total time  =          0 seconds =       0.00 minutes
Total time:
	user time   =       1.82 seconds =       0.03 minutes
	system time =       0.15 seconds =       0.00 minutes
	total time  =          2 seconds =       0.03 minutes

    Psi4 stopped on: Thursday, 29 June 2023 02:45PM
    Psi4 wall time for execution: 0:00:00.90


    -----------------------------------------------------------------------
          Psi4: An Open-Source Ab Initio Electronic Structure Package
                               Psi4 1.9a1.dev27 

                         Git: Rev {lsda_hessian} 1fbe585 dirty


    D. G. A. Smith, L. A. Burns, A. C. Simmonett, R. M. Parrish,
    M. C. Schieber, R. Galvelis, P. Kraus, H. Kruse, R. Di Remigio,
    A. Alenaizan, A. M. James, S. Lehtola, J. P. Misiewicz, M. Scheurer,
    R. A. Shaw, J. B. Schriber, Y. Xie, Z. L. Glick, D. A. Sirianni,
    J. S. O'Brien, J. M. Waldrop, A. Kumar, E. G. Hohenstein,
    B. P. Pritchard, B. R. Brooks, H. F. Schaefer III, A. Yu. Sokolov,
    K. Patkowski, A. E. DePrince III, U. Bozkaya, R. A. King,
    F. A. Evangelista, J. M. Turney, T. D. Crawford, C. D. Sherrill,
    J. Chem. Phys. 152(18) 184108 (2020). https://doi.org/10.1063/5.0006002

                            Additional Code Authors
    E. T. Seidl, C. L. Janssen, E. F. Valeev, M. L. Leininger,
    J. F. Gonthier, R. M. Richard, H. R. McAlexander, M. Saitow, X. Wang,
    P. Verma, M. H. Lechner, A. Jiang, S. Behnle, A. G. Heide,
    M. F. Herbst, and D. L. Poole

             Previous Authors, Complete List of Code Contributors,
                       and Citations for Specific Modules
    https://github.com/psi4/psi4/blob/master/codemeta.json
    https://github.com/psi4/psi4/graphs/contributors
    http://psicode.org/psi4manual/master/introduction.html#citing-psifour

    -----------------------------------------------------------------------


    Psi4 started on: Thursday, 29 June 2023 02:45PM

    Process ID: 17450
    Host:       jonathons-mbp.wireless.emory.edu
    PSIDATADIR: /Users/jonathonmisiewicz/psi4/objdir/stage/share/psi4
    Memory:     500.0 MiB
    Threads:    1
    
  ==> Input QCSchema <==

--------------------------------------------------------------------------
{'driver': 'gradient',
 'extras': {'psiapi': True, 'wfn_qcvars_only': True},
 'id': None,
 'keywords': {'DFT_RADIAL_POINTS': 75,
              'DFT_SPHERICAL_POINTS': 302,
              'D_CONVERGENCE': 1e-12,
              'PARENT_SYMMETRY': 'C2v(Z)',
              'REFERENCE': 'UKS',
              'SCF_TYPE': 'PK',
              'SCF__E_CONVERGENCE': 1e-08,
              'function_kwargs': {'write_orbitals': False}},
 'model': {'basis': 'sto-3g', 'method': 'svwn'},
 'molecule': {'atom_labels': ['', '', ''],
              'atomic_numbers': [8, 1, 1],
              'fix_com': True,
              'fix_orientation': True,
              'fragment_charges': [1.0],
              'fragment_multiplicities': [2],
              'fragments': [[0, 1, 2]],
              'geometry': [0.0, 0.0, -0.1441997657455061, 4.4540091524997516e-17, -1.454789791015926,
                           1.1442774626057302, -4.4540091524997516e-17, 1.454789791015926, 1.1442774626057302],
              'mass_numbers': [16, 1, 1],
              'masses': [15.99491461957, 1.00782503223, 1.00782503223],
              'molecular_charge': 1.0,
              'molecular_multiplicity': 2,
              'name': 'H2O',
              'provenance': {'creator': 'QCElemental',
                             'routine': 'qcelemental.molparse.from_string',
                             'version': 'v0.25.1'},
              'real': [True, True, True],
              'schema_name': 'qcschema_molecule',
              'schema_version': 2,
              'symbols': ['O', 'H', 'H'],
              'validated': True},
 'protocols': {'stdout': True},
 'provenance': {'creator': 'QCElemental', 'routine': 'qcelemental.models.results', 'version': 'v0.25.1'},
 'schema_name': 'qcschema_input',
 'schema_version': 1}
--------------------------------------------------------------------------

Scratch directory: /tmp/
gradient() will perform analytic gradient computation.
   => Libint2 <=

    Primary   basis highest AM E, G, H:  5, 4, 3
    Auxiliary basis highest AM E, G, H:  6, 5, 4
    Onebody   basis highest AM E, G, H:  6, 5, 4
    Solid Harmonics ordering:            gaussian

*** tstart() called on jonathons-mbp.wireless.emory.edu
*** at Thu Jun 29 14:45:45 2023

   => Loading Basis Set <=

    Name: STO-3G
    Role: ORBITAL
    Keyword: BASIS
    atoms 1   entry O          line    81 file /Users/jonathonmisiewicz/psi4/objdir/stage/share/psi4/basis/sto-3g.gbs 
    atoms 2-3 entry H          line    19 file /Users/jonathonmisiewicz/psi4/objdir/stage/share/psi4/basis/sto-3g.gbs 


         ---------------------------------------------------------
                                   SCF
               by Justin Turney, Rob Parrish, Andy Simmonett
                          and Daniel G. A. Smith
                              UKS Reference
                        1 Threads,    500 MiB Core
         ---------------------------------------------------------

  ==> Geometry <==

    Molecular point group: c2v
    Full point group: C2v

    Geometry (in Bohr), charge = 1, multiplicity = 2:

       Center              X                  Y                   Z               Mass       
    ------------   -----------------  -----------------  -----------------  -----------------
         O            0.000000000000     0.000000000000    -0.144199765746    15.994914619570
         H            0.000000000000    -1.454789791016     1.144277462606     1.007825032230
         H           -0.000000000000     1.454789791016     1.144277462606     1.007825032230

  Running in c2v symmetry.

  Rotational constants: A =     20.25681  B =     14.11168  C =      8.31743 [cm^-1]
  Rotational constants: A = 607283.81294  B = 423057.41125  C = 249350.32372 [MHz]
  Nuclear repulsion =    8.576922141070758

  Charge       = 1
  Multiplicity = 2
  Electrons    = 9
  Nalpha       = 5
  Nbeta        = 4

  ==> Algorithm <==

  SCF Algorithm Type is PK.
  DIIS enabled.
  MOM disabled.
  Fractional occupation disabled.
  Guess Type is SAD.
  Energy threshold   = 1.00e-08
  Density threshold  = 1.00e-12
  Integral threshold = 1.00e-12

  ==> Primary Basis <==

  Basis Set: STO-3G
    Blend: STO-3G
    Number of shells: 5
    Number of basis functions: 7
    Number of Cartesian functions: 7
    Spherical Harmonics?: true
    Max angular momentum: 1

  ==> DFT Potential <==

   => LibXC <=

    Version 6.2.0
    S. Lehtola, C. Steigemann, M. J.T. Oliveira, and M. A.L. Marques.,  SoftwareX 7, 1–5 (2018) (10.1016/j.softx.2017.11.002)

   => Composite Functional: SVWN <= 

    Slater exchange
    Vosko, Wilk & Nusair (VWN5_RPA)
    P. A. M. Dirac.,  Math. Proc. Cambridge Philos. Soc. 26, 376 (1930) (10.1017/S0305004100016108)
    F. Bloch.,  Z. Phys. 57, 545 (1929) (10.1007/BF01340281)
    S. H. Vosko, L. Wilk, and M. Nusair.,  Can. J. Phys. 58, 1200 (1980) (10.1139/p80-159)

    Deriv               =              1
    GGA                 =          FALSE
    Meta                =          FALSE

    Exchange Hybrid     =          FALSE
    MP2 Hybrid          =          FALSE

   => Exchange Functionals <=

    1.0000         XC_LDA_X

   => Correlation Functionals <=

    1.0000   XC_LDA_C_VWN_RPA

   => LibXC Density Thresholds  <==

    XC_LDA_C_VWN_RPA:  1.00E-15 
    XC_LDA_X:  1.00E-15 

   => Molecular Quadrature <=

    Radial Scheme          =       TREUTLER
    Pruning Scheme         =           NONE
    Nuclear Scheme         =       TREUTLER

    Blocking Scheme        =         OCTREE
    BS radius alpha        =              1
    Pruning alpha          =              1
    Radial Points          =             75
    Spherical Points       =            302
    Total Points           =          65859
    Total Blocks           =            547
    Max Points             =            256
    Max Functions          =              7
    Weights Tolerance      =       1.00E-15

  ==> Integral Setup <==

  Using in-core PK algorithm.
   Calculation information:
      Number of atoms:                   3
      Number of AO shells:               5
      Number of primitives:             15
      Number of atomic orbitals:         7
      Number of basis functions:         7

      Integral cutoff                 1.00e-12
      Number of threads:                 1

  Performing in-core PK
  Using 812 doubles for integral storage.
  We computed 120 shell quartets total.
  Whereas there are 120 unique shell quartets.

  ==> DiskJK: Disk-Based J/K Matrices <==

    J tasked:                  Yes
    K tasked:                   No
    wK tasked:                  No
    Memory [MiB]:              371
    Schwarz Cutoff:          1E-12

    OpenMP threads:              1

  Cached 100.0% of DFT collocation blocks in 0.003 [GiB].

  Minimum eigenvalue in the overlap matrix is 3.5524412331E-01.
  Reciprocal condition number of the overlap matrix is 2.1148753013E-01.
    Using symmetric orthogonalization.

  ==> Pre-Iterations <==

  SCF Guess: Superposition of Atomic Densities via on-the-fly atomic UHF (no occupation information).

   -------------------------
    Irrep   Nso     Nmo    
   -------------------------
     A1         4       4 
     A2         0       0 
     B1         1       1 
     B2         2       2 
   -------------------------
    Total       7       7
   -------------------------

  ==> Iterations <==

                        Total Energy        Delta E     RMS |[F,P]|

   @UKS iter SAD:   -74.49985481245778   -7.44999e+01   0.00000e+00 
   @UKS iter   1:   -74.53804926299100   -3.81945e-02   4.96275e-02 ADIIS/DIIS
   @UKS iter   2:   -74.54509424051028   -7.04498e-03   4.01524e-02 ADIIS/DIIS
   @UKS iter   3:   -74.56863433121279   -2.35401e-02   4.38600e-03 ADIIS/DIIS
   @UKS iter   4:   -74.56893195609669   -2.97625e-04   2.54881e-04 ADIIS/DIIS
   @UKS iter   5:   -74.56893353872829   -1.58263e-06   1.71254e-05 DIIS
   @UKS iter   6:   -74.56893354358550   -4.85721e-09   1.85250e-07 DIIS
   @UKS iter   7:   -74.56893354358603   -5.25802e-13   1.84182e-09 DIIS
   @UKS iter   8:   -74.56893354358604   -1.42109e-14   2.31911e-10 DIIS
   @UKS iter   9:   -74.56893354358604    0.00000e+00   5.45632e-12 DIIS
   @UKS iter  10:   -74.56893354358603    1.42109e-14   1.55747e-14 DIIS
  Energy and wave function converged.


  ==> Post-Iterations <==

   Electrons on quadrature grid:
      Nalpha   =    4.9999998147 ; deviation = -1.853e-07
      Nbeta    =    3.9999999008 ; deviation = -9.918e-08
      Ntotal   =    8.9999997155 ; deviation = -2.845e-07 

   @Spin Contamination Metric:   1.910950774E-03
   @S^2 Expected:                7.500000000E-01
   @S^2 Observed:                7.519109508E-01
   @S   Expected:                5.000000000E-01
   @S   Observed:                5.000000000E-01

    Orbital Energies [Eh]
    ---------------------

    Alpha Occupied:                                                       

       1A1   -19.083115     2A1    -1.437918     1B2    -0.909803  
       3A1    -0.774582     1B1    -0.771510  

    Alpha Virtual:                                                        

       4A1    -0.252758     2B2    -0.184258  

    Beta Occupied:                                                        

       1A1   -19.064067     2A1    -1.384165     1B2    -0.884950  
       3A1    -0.739243  

    Beta Virtual:                                                         

       1B1    -0.655537     4A1    -0.235940     2B2    -0.170831  

    Final Occupation by Irrep:
             A1    A2    B1    B2 
    DOCC [     3,    0,    0,    1 ]
    SOCC [     0,    0,    1,    0 ]
    NA   [     3,    0,    1,    1 ]
    NB   [     3,    0,    0,    1 ]

  @UKS Final Energy:   -74.56893354358603

   => Energetics <=

    Nuclear Repulsion Energy =              8.5769221410707583
    One-Electron Energy =                -115.4413219924382474
    Two-Electron Energy =                  40.7237385049433982
    DFT Exchange-Correlation Energy =      -8.4282721971619274
    Empirical Dispersion Energy =           0.0000000000000000
    VV10 Nonlocal Energy =                  0.0000000000000000
    Total Energy =                        -74.5689335435860272

  UHF NO Occupations:
  HONO-2 :    3 A1 1.9995530
  HONO-1 :    1 B2 1.9994913
  HONO-0 :    1 B1 1.0000000
  LUNO+0 :    2 B2 0.0005087
  LUNO+1 :    4 A1 0.0004470


Computation Completed


Properties will be evaluated at   0.000000,   0.000000,   0.000000 [a0]

Properties computed using the SCF density matrix


 Multipole Moments:

 ------------------------------------------------------------------------------------
     Multipole            Electronic (a.u.)      Nuclear  (a.u.)        Total (a.u.)
 ------------------------------------------------------------------------------------

 L = 1.  Multiply by 2.5417464519 to convert [e a0] to [Debye]
 Dipole X            :          0.0000000            0.0000000            0.0000000
 Dipole Y            :          0.0000000            0.0000000            0.0000000
 Dipole Z            :         -0.0214996            1.1349568            1.1134572
 Magnitude           :                                                    1.1134572

 ------------------------------------------------------------------------------------

*** tstop() called on jonathons-mbp.wireless.emory.edu at Thu Jun 29 14:45:46 2023
Module time:
	user time   =       0.72 seconds =       0.01 minutes
	system time =       0.04 seconds =       0.00 minutes
	total time  =          1 seconds =       0.02 minutes
Total time:
	user time   =       2.62 seconds =       0.04 minutes
	system time =       0.19 seconds =       0.00 minutes
	total time  =          3 seconds =       0.05 minutes

*** tstart() called on jonathons-mbp.wireless.emory.edu
*** at Thu Jun 29 14:45:46 2023


         ------------------------------------------------------------
                                   SCF GRAD                          
                          Rob Parrish, Justin Turney,                
                       Andy Simmonett, and Alex Sokolov              
         ------------------------------------------------------------

  ==> Geometry <==

    Molecular point group: c2v
    Full point group: C2v

    Geometry (in Bohr), charge = 1, multiplicity = 2:

       Center              X                  Y                   Z               Mass       
    ------------   -----------------  -----------------  -----------------  -----------------
         O            0.000000000000     0.000000000000    -0.144199765746    15.994914619570
         H            0.000000000000    -1.454789791016     1.144277462606     1.007825032230
         H           -0.000000000000     1.454789791016     1.144277462606     1.007825032230

  Nuclear repulsion =    8.576922141070758

  ==> Basis Set <==

  Basis Set: STO-3G
    Blend: STO-3G
    Number of shells: 5
    Number of basis functions: 7
    Number of Cartesian functions: 7
    Spherical Harmonics?: true
    Max angular momentum: 1

  ==> DirectJKGrad: Integral-Direct SCF Gradients <==

    Gradient:                    1
    J tasked:                  Yes
    K tasked:                   No
    wK tasked:                  No
    Integrals threads:           1
    Schwarz Cutoff:          1E-12

  ==> DFT Potential <==

   => LibXC <=

    Version 6.2.0
    S. Lehtola, C. Steigemann, M. J.T. Oliveira, and M. A.L. Marques.,  SoftwareX 7, 1–5 (2018) (10.1016/j.softx.2017.11.002)

   => Composite Functional: SVWN <= 

    Slater exchange
    Vosko, Wilk & Nusair (VWN5_RPA)
    P. A. M. Dirac.,  Math. Proc. Cambridge Philos. Soc. 26, 376 (1930) (10.1017/S0305004100016108)
    F. Bloch.,  Z. Phys. 57, 545 (1929) (10.1007/BF01340281)
    S. H. Vosko, L. Wilk, and M. Nusair.,  Can. J. Phys. 58, 1200 (1980) (10.1139/p80-159)

    Deriv               =              1
    GGA                 =          FALSE
    Meta                =          FALSE

    Exchange Hybrid     =          FALSE
    MP2 Hybrid          =          FALSE

   => Exchange Functionals <=

    1.0000         XC_LDA_X

   => Correlation Functionals <=

    1.0000   XC_LDA_C_VWN_RPA

   => LibXC Density Thresholds  <==

    XC_LDA_C_VWN_RPA:  1.00E-15 
    XC_LDA_X:  1.00E-15 

   => Molecular Quadrature <=

    Radial Scheme          =       TREUTLER
    Pruning Scheme         =           NONE
    Nuclear Scheme         =       TREUTLER

    Blocking Scheme        =         OCTREE
    BS radius alpha        =              1
    Pruning alpha          =              1
    Radial Points          =             75
    Spherical Points       =            302
    Total Points           =          65859
    Total Blocks           =            547
    Max Points             =            256
    Max Functions          =              7
    Weights Tolerance      =       1.00E-15


  -Total Gradient:
     Atom            X                  Y                   Z
    ------   -----------------  -----------------  -----------------
       1       -0.000000000000     0.000000000000     0.034994355541
       2       -0.000000000000     0.044651338321    -0.017496699145
       3        0.000000000000    -0.044651338321    -0.017496699145


*** tstop() called on jonathons-mbp.wireless.emory.edu at Thu Jun 29 14:45:46 2023
Module time:
	user time   =       0.07 seconds =       0.00 minutes
	system time =       0.00 seconds =       0.00 minutes
	total time  =          0 seconds =       0.00 minutes
Total time:
	user time   =       2.70 seconds =       0.05 minutes
	system time =       0.19 seconds =       0.00 minutes
	total time  =          3 seconds =       0.05 minutes

    Psi4 stopped on: Thursday, 29 June 2023 02:45PM
    Psi4 wall time for execution: 0:00:00.90


    -----------------------------------------------------------------------
          Psi4: An Open-Source Ab Initio Electronic Structure Package
                               Psi4 1.9a1.dev27 

                         Git: Rev {lsda_hessian} 1fbe585 dirty


    D. G. A. Smith, L. A. Burns, A. C. Simmonett, R. M. Parrish,
    M. C. Schieber, R. Galvelis, P. Kraus, H. Kruse, R. Di Remigio,
    A. Alenaizan, A. M. James, S. Lehtola, J. P. Misiewicz, M. Scheurer,
    R. A. Shaw, J. B. Schriber, Y. Xie, Z. L. Glick, D. A. Sirianni,
    J. S. O'Brien, J. M. Waldrop, A. Kumar, E. G. Hohenstein,
    B. P. Pritchard, B. R. Brooks, H. F. Schaefer III, A. Yu. Sokolov,
    K. Patkowski, A. E. DePrince III, U. Bozkaya, R. A. King,
    F. A. Evangelista, J. M. Turney, T. D. Crawford, C. D. Sherrill,
    J. Chem. Phys. 152(18) 184108 (2020). https://doi.org/10.1063/5.0006002

                            Additional Code Authors
    E. T. Seidl, C. L. Janssen, E. F. Valeev, M. L. Leininger,
    J. F. Gonthier, R. M. Richard, H. R. McAlexander, M. Saitow, X. Wang,
    P. Verma, M. H. Lechner, A. Jiang, S. Behnle, A. G. Heide,
    M. F. Herbst, and D. L. Poole

             Previous Authors, Complete List of Code Contributors,
                       and Citations for Specific Modules
    https://github.com/psi4/psi4/blob/master/codemeta.json
    https://github.com/psi4/psi4/graphs/contributors
    http://psicode.org/psi4manual/master/introduction.html#citing-psifour

    -----------------------------------------------------------------------


    Psi4 started on: Thursday, 29 June 2023 02:45PM

    Process ID: 17450
    Host:       jonathons-mbp.wireless.emory.edu
    PSIDATADIR: /Users/jonathonmisiewicz/psi4/objdir/stage/share/psi4
    Memory:     500.0 MiB
    Threads:    1
    
  ==> Input QCSchema <==

--------------------------------------------------------------------------
{'driver': 'gradient',
 'extras': {'psiapi': True, 'wfn_qcvars_only': True},
 'id': None,
 'keywords': {'DFT_RADIAL_POINTS': 75,
              'DFT_SPHERICAL_POINTS': 302,
              'D_CONVERGENCE': 1e-12,
              'PARENT_SYMMETRY': 'C2v(Z)',
              'REFERENCE': 'UKS',
              'SCF_TYPE': 'PK',
              'SCF__E_CONVERGENCE': 1e-08,
              'function_kwargs': {'write_orbitals': False}},
 'model': {'basis': 'sto-3g', 'method': 'svwn'},
 'molecule': {'atom_labels': ['', '', ''],
              'atomic_numbers': [8, 1, 1],
              'fix_com': True,
              'fix_orientation': True,
              'fragment_charges': [1.0],
              'fragment_multiplicities': [2],
              'fragments': [[0, 1, 2]],
              'geometry': [0.0, 0.0, -0.14461800322141685, 4.464791499302663e-17, -1.4583115727444762,
                           1.1475963287302868, -4.464791499302663e-17, 1.4583115727444762, 1.1475963287302868],
              'mass_numbers': [16, 1, 1],
              'masses': [15.99491461957, 1.00782503223, 1.00782503223],
              'molecular_charge': 1.0,
              'molecular_multiplicity': 2,
              'name': 'H2O',
              'provenance': {'creator': 'QCElemental',
                             'routine': 'qcelemental.molparse.from_string',
                             'version': 'v0.25.1'},
              'real': [True, True, True],
              'schema_name': 'qcschema_molecule',
              'schema_version': 2,
              'symbols': ['O', 'H', 'H'],
              'validated': True},
 'protocols': {'stdout': True},
 'provenance': {'creator': 'QCElemental', 'routine': 'qcelemental.models.results', 'version': 'v0.25.1'},
 'schema_name': 'qcschema_input',
 'schema_version': 1}
--------------------------------------------------------------------------

Scratch directory: /tmp/
gradient() will perform analytic gradient computation.
   => Libint2 <=

    Primary   basis highest AM E, G, H:  5, 4, 3
    Auxiliary basis highest AM E, G, H:  6, 5, 4
    Onebody   basis highest AM E, G, H:  6, 5, 4
    Solid Harmonics ordering:            gaussian

*** tstart() called on jonathons-mbp.wireless.emory.edu
*** at Thu Jun 29 14:45:46 2023

   => Loading Basis Set <=

    Name: STO-3G
    Role: ORBITAL
    Keyword: BASIS
    atoms 1   entry O          line    81 file /Users/jonathonmisiewicz/psi4/objdir/stage/share/psi4/basis/sto-3g.gbs 
    atoms 2-3 entry H          line    19 file /Users/jonathonmisiewicz/psi4/objdir/stage/share/psi4/basis/sto-3g.gbs 


         ---------------------------------------------------------
                                   SCF
               by Justin Turney, Rob Parrish, Andy Simmonett
                          and Daniel G. A. Smith
                              UKS Reference
                        1 Threads,    500 MiB Core
         ---------------------------------------------------------

  ==> Geometry <==

    Molecular point group: c2v
    Full point group: C2v

    Geometry (in Bohr), charge = 1, multiplicity = 2:

       Center              X                  Y                   Z               Mass       
    ------------   -----------------  -----------------  -----------------  -----------------
         O            0.000000000000     0.000000000000    -0.144618003221    15.994914619570
         H            0.000000000000    -1.458311572744     1.147596328730     1.007825032230
         H           -0.000000000000     1.458311572744     1.147596328730     1.007825032230

  Running in c2v symmetry.

  Rotational constants: A =     20.13981  B =     14.04360  C =      8.27406 [cm^-1]
  Rotational constants: A = 603776.34397  B = 421016.53489  C = 248049.95178 [MHz]
  Nuclear repulsion =    8.554481858179033

  Charge       = 1
  Multiplicity = 2
  Electrons    = 9
  Nalpha       = 5
  Nbeta        = 4

  ==> Algorithm <==

  SCF Algorithm Type is PK.
  DIIS enabled.
  MOM disabled.
  Fractional occupation disabled.
  Guess Type is SAD.
  Energy threshold   = 1.00e-08
  Density threshold  = 1.00e-12
  Integral threshold = 1.00e-12

  ==> Primary Basis <==

  Basis Set: STO-3G
    Blend: STO-3G
    Number of shells: 5
    Number of basis functions: 7
    Number of Cartesian functions: 7
    Spherical Harmonics?: true
    Max angular momentum: 1

  ==> DFT Potential <==

   => LibXC <=

    Version 6.2.0
    S. Lehtola, C. Steigemann, M. J.T. Oliveira, and M. A.L. Marques.,  SoftwareX 7, 1–5 (2018) (10.1016/j.softx.2017.11.002)

   => Composite Functional: SVWN <= 

    Slater exchange
    Vosko, Wilk & Nusair (VWN5_RPA)
    P. A. M. Dirac.,  Math. Proc. Cambridge Philos. Soc. 26, 376 (1930) (10.1017/S0305004100016108)
    F. Bloch.,  Z. Phys. 57, 545 (1929) (10.1007/BF01340281)
    S. H. Vosko, L. Wilk, and M. Nusair.,  Can. J. Phys. 58, 1200 (1980) (10.1139/p80-159)

    Deriv               =              1
    GGA                 =          FALSE
    Meta                =          FALSE

    Exchange Hybrid     =          FALSE
    MP2 Hybrid          =          FALSE

   => Exchange Functionals <=

    1.0000         XC_LDA_X

   => Correlation Functionals <=

    1.0000   XC_LDA_C_VWN_RPA

   => LibXC Density Thresholds  <==

    XC_LDA_C_VWN_RPA:  1.00E-15 
    XC_LDA_X:  1.00E-15 

   => Molecular Quadrature <=

    Radial Scheme          =       TREUTLER
    Pruning Scheme         =           NONE
    Nuclear Scheme         =       TREUTLER

    Blocking Scheme        =         OCTREE
    BS radius alpha        =              1
    Pruning alpha          =              1
    Radial Points          =             75
    Spherical Points       =            302
    Total Points           =          65865
    Total Blocks           =            547
    Max Points             =            256
    Max Functions          =              7
    Weights Tolerance      =       1.00E-15

  ==> Integral Setup <==

  Using in-core PK algorithm.
   Calculation information:
      Number of atoms:                   3
      Number of AO shells:               5
      Number of primitives:             15
      Number of atomic orbitals:         7
      Number of basis functions:         7

      Integral cutoff                 1.00e-12
      Number of threads:                 1

  Performing in-core PK
  Using 812 doubles for integral storage.
  We computed 120 shell quartets total.
  Whereas there are 120 unique shell quartets.

  ==> DiskJK: Disk-Based J/K Matrices <==

    J tasked:                  Yes
    K tasked:                   No
    wK tasked:                  No
    Memory [MiB]:              371
    Schwarz Cutoff:          1E-12

    OpenMP threads:              1

  Cached 100.0% of DFT collocation blocks in 0.003 [GiB].

  Minimum eigenvalue in the overlap matrix is 3.5702219042E-01.
  Reciprocal condition number of the overlap matrix is 2.1278705138E-01.
    Using symmetric orthogonalization.

  ==> Pre-Iterations <==

  SCF Guess: Superposition of Atomic Densities via on-the-fly atomic UHF (no occupation information).

   -------------------------
    Irrep   Nso     Nmo    
   -------------------------
     A1         4       4 
     A2         0       0 
     B1         1       1 
     B2         2       2 
   -------------------------
    Total       7       7
   -------------------------

  ==> Iterations <==

                        Total Energy        Delta E     RMS |[F,P]|

   @UKS iter SAD:   -74.49646424755873   -7.44965e+01   0.00000e+00 
   @UKS iter   1:   -74.53827092550016   -4.18067e-02   4.97523e-02 ADIIS/DIIS
   @UKS iter   2:   -74.54504053544404   -6.76961e-03   4.04999e-02 ADIIS/DIIS
   @UKS iter   3:   -74.56906827658726   -2.40277e-02   4.36087e-03 ADIIS/DIIS
   @UKS iter   4:   -74.56936364728915   -2.95371e-04   2.54452e-04 ADIIS/DIIS
   @UKS iter   5:   -74.56936525127206   -1.60398e-06   1.78011e-05 DIIS
   @UKS iter   6:   -74.56936525651383   -5.24177e-09   1.94314e-07 DIIS
   @UKS iter   7:   -74.56936525651442   -5.82645e-13   1.91186e-09 DIIS
   @UKS iter   8:   -74.56936525651437    4.26326e-14   2.42338e-10 DIIS
   @UKS iter   9:   -74.56936525651437    0.00000e+00   5.78775e-12 DIIS
   @UKS iter  10:   -74.56936525651436    1.42109e-14   1.82734e-14 DIIS
  Energy and wave function converged.


  ==> Post-Iterations <==

   Electrons on quadrature grid:
      Nalpha   =    4.9999998172 ; deviation = -1.828e-07
      Nbeta    =    3.9999999001 ; deviation = -9.989e-08
      Ntotal   =    8.9999997174 ; deviation = -2.826e-07 

   @Spin Contamination Metric:   1.936091886E-03
   @S^2 Expected:                7.500000000E-01
   @S^2 Observed:                7.519360919E-01
   @S   Expected:                5.000000000E-01
   @S   Observed:                5.000000000E-01

    Orbital Energies [Eh]
    ---------------------

    Alpha Occupied:                                                       

       1A1   -19.082411     2A1    -1.436268     1B2    -0.908227  
       3A1    -0.774059     1B1    -0.770753  

    Alpha Virtual:                                                        

       4A1    -0.254385     2B2    -0.186142  

    Beta Occupied:                                                        

       1A1   -19.063357     2A1    -1.382460     1B2    -0.883380  
       3A1    -0.738756  

    Beta Virtual:                                                         

       1B1    -0.654759     4A1    -0.237627     2B2    -0.172756  

    Final Occupation by Irrep:
             A1    A2    B1    B2 
    DOCC [     3,    0,    0,    1 ]
    SOCC [     0,    0,    1,    0 ]
    NA   [     3,    0,    1,    1 ]
    NB   [     3,    0,    0,    1 ]

  @UKS Final Energy:   -74.56936525651436

   => Energetics <=

    Nuclear Repulsion Energy =              8.5544818581790327
    One-Electron Energy =                -115.4079455910447223
    Two-Electron Energy =                  40.7109679234314328
    DFT Exchange-Correlation Energy =      -8.4268694470801044
    Empirical Dispersion Energy =           0.0000000000000000
    VV10 Nonlocal Energy =                  0.0000000000000000
    Total Energy =                        -74.5693652565143594

  UHF NO Occupations:
  HONO-2 :    3 A1 1.9995470
  HONO-1 :    1 B2 1.9994847
  HONO-0 :    1 B1 1.0000000
  LUNO+0 :    2 B2 0.0005153
  LUNO+1 :    4 A1 0.0004530


Computation Completed


Properties will be evaluated at   0.000000,   0.000000,   0.000000 [a0]

Properties computed using the SCF density matrix


 Multipole Moments:

 ------------------------------------------------------------------------------------
     Multipole            Electronic (a.u.)      Nuclear  (a.u.)        Total (a.u.)
 ------------------------------------------------------------------------------------

 L = 1.  Multiply by 2.5417464519 to convert [e a0] to [Debye]
 Dipole X            :          0.0000000            0.0000000            0.0000000
 Dipole Y            :          0.0000000            0.0000000            0.0000000
 Dipole Z            :         -0.0236004            1.1382486            1.1146482
 Magnitude           :                                                    1.1146482

 ------------------------------------------------------------------------------------

*** tstop() called on jonathons-mbp.wireless.emory.edu at Thu Jun 29 14:45:47 2023
Module time:
	user time   =       0.73 seconds =       0.01 minutes
	system time =       0.04 seconds =       0.00 minutes
	total time  =          1 seconds =       0.02 minutes
Total time:
	user time   =       3.50 seconds =       0.06 minutes
	system time =       0.24 seconds =       0.00 minutes
	total time  =          4 seconds =       0.07 minutes

*** tstart() called on jonathons-mbp.wireless.emory.edu
*** at Thu Jun 29 14:45:47 2023


         ------------------------------------------------------------
                                   SCF GRAD                          
                          Rob Parrish, Justin Turney,                
                       Andy Simmonett, and Alex Sokolov              
         ------------------------------------------------------------

  ==> Geometry <==

    Molecular point group: c2v
    Full point group: C2v

    Geometry (in Bohr), charge = 1, multiplicity = 2:

       Center              X                  Y                   Z               Mass       
    ------------   -----------------  -----------------  -----------------  -----------------
         O            0.000000000000     0.000000000000    -0.144618003221    15.994914619570
         H            0.000000000000    -1.458311572744     1.147596328730     1.007825032230
         H           -0.000000000000     1.458311572744     1.147596328730     1.007825032230

  Nuclear repulsion =    8.554481858179033

  ==> Basis Set <==

  Basis Set: STO-3G
    Blend: STO-3G
    Number of shells: 5
    Number of basis functions: 7
    Number of Cartesian functions: 7
    Spherical Harmonics?: true
    Max angular momentum: 1

  ==> DirectJKGrad: Integral-Direct SCF Gradients <==

    Gradient:                    1
    J tasked:                  Yes
    K tasked:                   No
    wK tasked:                  No
    Integrals threads:           1
    Schwarz Cutoff:          1E-12

  ==> DFT Potential <==

   => LibXC <=

    Version 6.2.0
    S. Lehtola, C. Steigemann, M. J.T. Oliveira, and M. A.L. Marques.,  SoftwareX 7, 1–5 (2018) (10.1016/j.softx.2017.11.002)

   => Composite Functional: SVWN <= 

    Slater exchange
    Vosko, Wilk & Nusair (VWN5_RPA)
    P. A. M. Dirac.,  Math. Proc. Cambridge Philos. Soc. 26, 376 (1930) (10.1017/S0305004100016108)
    F. Bloch.,  Z. Phys. 57, 545 (1929) (10.1007/BF01340281)
    S. H. Vosko, L. Wilk, and M. Nusair.,  Can. J. Phys. 58, 1200 (1980) (10.1139/p80-159)

    Deriv               =              1
    GGA                 =          FALSE
    Meta                =          FALSE

    Exchange Hybrid     =          FALSE
    MP2 Hybrid          =          FALSE

   => Exchange Functionals <=

    1.0000         XC_LDA_X

   => Correlation Functionals <=

    1.0000   XC_LDA_C_VWN_RPA

   => LibXC Density Thresholds  <==

    XC_LDA_C_VWN_RPA:  1.00E-15 
    XC_LDA_X:  1.00E-15 

   => Molecular Quadrature <=

    Radial Scheme          =       TREUTLER
    Pruning Scheme         =           NONE
    Nuclear Scheme         =       TREUTLER

    Blocking Scheme        =         OCTREE
    BS radius alpha        =              1
    Pruning alpha          =              1
    Radial Points          =             75
    Spherical Points       =            302
    Total Points           =          65865
    Total Blocks           =            547
    Max Points             =            256
    Max Functions          =              7
    Weights Tolerance      =       1.00E-15


  -Total Gradient:
     Atom            X                  Y                   Z
    ------   -----------------  -----------------  -----------------
       1       -0.000000000000     0.000000000000     0.031751093771
       2       -0.000000000000     0.042527630004    -0.015874978671
       3        0.000000000000    -0.042527630004    -0.015874978671


*** tstop() called on jonathons-mbp.wireless.emory.edu at Thu Jun 29 14:45:47 2023
Module time:
	user time   =       0.07 seconds =       0.00 minutes
	system time =       0.00 seconds =       0.00 minutes
	total time  =          0 seconds =       0.00 minutes
Total time:
	user time   =       3.58 seconds =       0.06 minutes
	system time =       0.24 seconds =       0.00 minutes
	total time  =          4 seconds =       0.07 minutes

    Psi4 stopped on: Thursday, 29 June 2023 02:45PM
    Psi4 wall time for execution: 0:00:00.91


    -----------------------------------------------------------------------
          Psi4: An Open-Source Ab Initio Electronic Structure Package
                               Psi4 1.9a1.dev27 

                         Git: Rev {lsda_hessian} 1fbe585 dirty


    D. G. A. Smith, L. A. Burns, A. C. Simmonett, R. M. Parrish,
    M. C. Schieber, R. Galvelis, P. Kraus, H. Kruse, R. Di Remigio,
    A. Alenaizan, A. M. James, S. Lehtola, J. P. Misiewicz, M. Scheurer,
    R. A. Shaw, J. B. Schriber, Y. Xie, Z. L. Glick, D. A. Sirianni,
    J. S. O'Brien, J. M. Waldrop, A. Kumar, E. G. Hohenstein,
    B. P. Pritchard, B. R. Brooks, H. F. Schaefer III, A. Yu. Sokolov,
    K. Patkowski, A. E. DePrince III, U. Bozkaya, R. A. King,
    F. A. Evangelista, J. M. Turney, T. D. Crawford, C. D. Sherrill,
    J. Chem. Phys. 152(18) 184108 (2020). https://doi.org/10.1063/5.0006002

                            Additional Code Authors
    E. T. Seidl, C. L. Janssen, E. F. Valeev, M. L. Leininger,
    J. F. Gonthier, R. M. Richard, H. R. McAlexander, M. Saitow, X. Wang,
    P. Verma, M. H. Lechner, A. Jiang, S. Behnle, A. G. Heide,
    M. F. Herbst, and D. L. Poole

             Previous Authors, Complete List of Code Contributors,
                       and Citations for Specific Modules
    https://github.com/psi4/psi4/blob/master/codemeta.json
    https://github.com/psi4/psi4/graphs/contributors
    http://psicode.org/psi4manual/master/introduction.html#citing-psifour

    -----------------------------------------------------------------------


    Psi4 started on: Thursday, 29 June 2023 02:45PM

    Process ID: 17450
    Host:       jonathons-mbp.wireless.emory.edu
    PSIDATADIR: /Users/jonathonmisiewicz/psi4/objdir/stage/share/psi4
    Memory:     500.0 MiB
    Threads:    1
    
  ==> Input QCSchema <==

--------------------------------------------------------------------------
{'driver': 'gradient',
 'extras': {'psiapi': True, 'wfn_qcvars_only': True},
 'id': None,
 'keywords': {'DFT_RADIAL_POINTS': 75,
              'DFT_SPHERICAL_POINTS': 302,
              'D_CONVERGENCE': 1e-12,
              'PARENT_SYMMETRY': 'C2v(Z)',
              'REFERENCE': 'UKS',
              'SCF_TYPE': 'PK',
              'SCF__E_CONVERGENCE': 1e-08,
              'function_kwargs': {'write_orbitals': False}},
 'model': {'basis': 'sto-3g', 'method': 'svwn'},
 'molecule': {'atom_labels': ['', '', ''],
              'atomic_numbers': [8, 1, 1],
              'fix_com': True,
              'fix_orientation': True,
              'fragment_charges': [1.0],
              'fragment_multiplicities': [2],
              'fragments': [[0, 1, 2]],
              'geometry': [0.0, 0.0, -0.14461800322141685, 4.44322680569684e-17, -1.4512680092873758,
                           1.1475963287302868, -4.44322680569684e-17, 1.4512680092873758, 1.1475963287302868],
              'mass_numbers': [16, 1, 1],
              'masses': [15.99491461957, 1.00782503223, 1.00782503223],
              'molecular_charge': 1.0,
              'molecular_multiplicity': 2,
              'name': 'H2O',
              'provenance': {'creator': 'QCElemental',
                             'routine': 'qcelemental.molparse.from_string',
                             'version': 'v0.25.1'},
              'real': [True, True, True],
              'schema_name': 'qcschema_molecule',
              'schema_version': 2,
              'symbols': ['O', 'H', 'H'],
              'validated': True},
 'protocols': {'stdout': True},
 'provenance': {'creator': 'QCElemental', 'routine': 'qcelemental.models.results', 'version': 'v0.25.1'},
 'schema_name': 'qcschema_input',
 'schema_version': 1}
--------------------------------------------------------------------------

Scratch directory: /tmp/
gradient() will perform analytic gradient computation.
   => Libint2 <=

    Primary   basis highest AM E, G, H:  5, 4, 3
    Auxiliary basis highest AM E, G, H:  6, 5, 4
    Onebody   basis highest AM E, G, H:  6, 5, 4
    Solid Harmonics ordering:            gaussian

*** tstart() called on jonathons-mbp.wireless.emory.edu
*** at Thu Jun 29 14:45:47 2023

   => Loading Basis Set <=

    Name: STO-3G
    Role: ORBITAL
    Keyword: BASIS
    atoms 1   entry O          line    81 file /Users/jonathonmisiewicz/psi4/objdir/stage/share/psi4/basis/sto-3g.gbs 
    atoms 2-3 entry H          line    19 file /Users/jonathonmisiewicz/psi4/objdir/stage/share/psi4/basis/sto-3g.gbs 


         ---------------------------------------------------------
                                   SCF
               by Justin Turney, Rob Parrish, Andy Simmonett
                          and Daniel G. A. Smith
                              UKS Reference
                        1 Threads,    500 MiB Core
         ---------------------------------------------------------

  ==> Geometry <==

    Molecular point group: c2v
    Full point group: C2v

    Geometry (in Bohr), charge = 1, multiplicity = 2:

       Center              X                  Y                   Z               Mass       
    ------------   -----------------  -----------------  -----------------  -----------------
         O            0.000000000000     0.000000000000    -0.144618003221    15.994914619570
         H            0.000000000000    -1.451268009287     1.147596328730     1.007825032230
         H           -0.000000000000     1.451268009287     1.147596328730     1.007825032230

  Running in c2v symmetry.

  Rotational constants: A =     20.13981  B =     14.18025  C =      8.32130 [cm^-1]
  Rotational constants: A = 603776.34397  B = 425113.16338  C = 249466.31268 [MHz]
[...]
	total time  =         11 seconds =       0.18 minutes

*** tstart() called on jonathons-mbp.wireless.emory.edu
*** at Thu Jun 29 14:45:54 2023


         ------------------------------------------------------------
                                   SCF HESS                          
                          Rob Parrish, Justin Turney,                
                       Andy Simmonett, and Alex Sokolov              
         ------------------------------------------------------------

  ==> Geometry <==

    Molecular point group: c2v
    Full point group: C2v

    Geometry (in Angstrom), charge = 1, multiplicity = 2:

       Center              X                  Y                   Z               Mass       
    ------------   -----------------  -----------------  -----------------  -----------------
         O            0.000000000000     0.000000000000    -0.076528551557    15.994914619570
         H            0.000000000000    -0.769841603721     0.607281824213     1.007825032230
         H           -0.000000000000     0.769841603721     0.607281824213     1.007825032230

  Nuclear repulsion =    8.566429587941965

  ==> Basis Set <==

  Basis Set: STO-3G
    Blend: STO-3G
    Number of shells: 5
    Number of basis functions: 7
    Number of Cartesian functions: 7
    Spherical Harmonics?: true
    Max angular momentum: 1

  ==> DFT Potential <==

   => LibXC <=

    Version 6.2.0
    S. Lehtola, C. Steigemann, M. J.T. Oliveira, and M. A.L. Marques.,  SoftwareX 7, 1–5 (2018) (10.1016/j.softx.2017.11.002)

   => Composite Functional: SVWN <= 

    Slater exchange
    Vosko, Wilk & Nusair (VWN5_RPA)
    P. A. M. Dirac.,  Math. Proc. Cambridge Philos. Soc. 26, 376 (1930) (10.1017/S0305004100016108)
    F. Bloch.,  Z. Phys. 57, 545 (1929) (10.1007/BF01340281)
    S. H. Vosko, L. Wilk, and M. Nusair.,  Can. J. Phys. 58, 1200 (1980) (10.1139/p80-159)

    Deriv               =              1
    GGA                 =          FALSE
    Meta                =          FALSE

    Exchange Hybrid     =          FALSE
    MP2 Hybrid          =          FALSE

   => Exchange Functionals <=

    1.0000         XC_LDA_X

   => Correlation Functionals <=

    1.0000   XC_LDA_C_VWN_RPA

   => LibXC Density Thresholds  <==

    XC_LDA_C_VWN_RPA:  1.00E-15 
    XC_LDA_X:  1.00E-15 

   => Molecular Quadrature <=

    Radial Scheme          =       TREUTLER
    Pruning Scheme         =           NONE
    Nuclear Scheme         =       TREUTLER

    Blocking Scheme        =         OCTREE
    BS radius alpha        =              1
    Pruning alpha          =              1
    Radial Points          =             75
    Spherical Points       =            302
    Total Points           =          65863
    Total Blocks           =            548
    Max Points             =            256
    Max Functions          =              7
    Weights Tolerance      =       1.00E-15

  ==> DirectJKGrad: Integral-Direct SCF Gradients <==

    Gradient:                    2
    J tasked:                  Yes
    K tasked:                   No
    wK tasked:                  No
    Integrals threads:           1
    Schwarz Cutoff:          1E-12

  ## JHess (Symmetry 0) ##
  Irrep: 1 Size: 9 x 9

                 1                   2                   3                   4                   5

    1    -3.69864589431592    -0.00000000000000    -0.00000000000000     1.84932294715795     0.00000000000000
    2    -0.00000000000000    -1.46370822755268    -0.00000000000000     0.00000000000000     0.73185411377631
    3    -0.00000000000000    -0.00000000000000    -1.63618729295486    -0.00000000000000     1.04820231693920
    4     1.84932294715795     0.00000000000000    -0.00000000000000    -1.79970321897246    -0.00000000000000
    5     0.00000000000000     0.73185411377631     1.04820231693920    -0.00000000000000    -0.84396178029755
    6    -0.00000000000000     1.08040000657728     0.81809364647740     0.00000000000000    -1.06430116175824
    7     1.84932294715795     0.00000000000000     0.00000000000000    -0.04961972818549    -0.00000000000000
    8     0.00000000000000     0.73185411377631    -1.04820231693920    -0.00000000000000     0.11210766652124
    9     0.00000000000000    -1.08040000657728     0.81809364647740    -0.00000000000000     0.01609884481904

                 6                   7                   8                   9

    1    -0.00000000000000     1.84932294715795     0.00000000000000     0.00000000000000
    2     1.08040000657728     0.00000000000000     0.73185411377631    -1.08040000657728
    3     0.81809364647740     0.00000000000000    -1.04820231693920     0.81809364647740
    4     0.00000000000000    -0.04961972818549    -0.00000000000000    -0.00000000000000
    5    -1.06430116175824    -0.00000000000000     0.11210766652124     0.01609884481904
    6    -0.76235848055909     0.00000000000000    -0.01609884481904    -0.05573516591831
    7     0.00000000000000    -1.79970321897246    -0.00000000000000    -0.00000000000000
    8    -0.01609884481904    -0.00000000000000    -0.84396178029755     1.06430116175824
    9    -0.05573516591831    -0.00000000000000     1.06430116175824    -0.76235848055909



  ## KHess (Symmetry 0) ##
  Irrep: 1 Size: 9 x 9

                 1                   2                   3                   4                   5

    1    -0.54759021361912    -0.00000000000000     0.00000000000000     0.27379510680956     0.00000000000000
    2    -0.00000000000000    -0.08601808213492    -0.00000000000000     0.00000000000000     0.04300904106746
    3     0.00000000000000    -0.00000000000000    -0.16060806415683    -0.00000000000000     0.17130117249891
    4     0.27379510680956     0.00000000000000    -0.00000000000000    -0.26340071491096    -0.00000000000000
    5     0.00000000000000     0.04300904106746     0.17130117249891    -0.00000000000000    -0.06912324326862
    6    -0.00000000000000     0.21554566455722     0.08030403207841     0.00000000000000    -0.19342341852807
    7     0.27379510680956     0.00000000000000     0.00000000000000    -0.01039439189860    -0.00000000000000
    8     0.00000000000000     0.04300904106746    -0.17130117249891    -0.00000000000000     0.02611420220116
    9     0.00000000000000    -0.21554566455722     0.08030403207841    -0.00000000000000     0.02212224602916

                 6                   7                   8                   9

    1    -0.00000000000000     0.27379510680956     0.00000000000000     0.00000000000000
    2     0.21554566455722     0.00000000000000     0.04300904106746    -0.21554566455722
    3     0.08030403207841     0.00000000000000    -0.17130117249891     0.08030403207841
    4     0.00000000000000    -0.01039439189860    -0.00000000000000    -0.00000000000000
    5    -0.19342341852807    -0.00000000000000     0.02611420220116     0.02212224602916
    6    -0.06904445480136     0.00000000000000    -0.02212224602915    -0.01125957727705
    7     0.00000000000000    -0.26340071491096    -0.00000000000000    -0.00000000000000
    8    -0.02212224602915    -0.00000000000000    -0.06912324326862     0.19342341852807
    9    -0.01125957727705    -0.00000000000000     0.19342341852807    -0.06904445480136



  Using in-core PK algorithm.
   Calculation information:
      Number of atoms:                   3
      Number of AO shells:               5
      Number of primitives:             15
      Number of atomic orbitals:         7
      Number of basis functions:         7

      Integral cutoff                 1.00e-12
      Number of threads:                 1

  Performing in-core PK
  Using 812 doubles for integral storage.
  We computed 120 shell quartets total.
  Whereas there are 120 unique shell quartets.

  ==> DiskJK: Disk-Based J/K Matrices <==

    J tasked:                  Yes
    K tasked:                  Yes
    wK tasked:                  No
    Memory [MiB]:              450
    Schwarz Cutoff:          1E-12

    OpenMP threads:              1


   ==> Coupled-Perturbed UKS Solver <==

    Maxiter             =         100
    Convergence         =   1.000E-06
    Number of equations =          18
   -----------------------------------------------------
     Iter   Residual RMS      Max RMS  Remain  Time [s]
   -----------------------------------------------------
        1      6.173e-01    8.385e-01       9         1
        2      4.427e-02    8.037e-02       9         1
        3      4.557e-03    9.616e-03       9         1
        4      7.100e-04    1.525e-03       8         1
        5      6.820e-05    2.061e-04       7         2
        6      4.597e-06    1.156e-05       4         2
        7      2.795e-07    6.575e-07       0         2
  ## Total Hessian (Symmetry 0) ##
  Irrep: 1 Size: 9 x 9

                 1                   2                   3                   4                   5

    1    -0.02593971783649    -0.00000000000011    -0.00000000000011     0.01285003173100    -0.00000000000000
    2    -0.00000000000011     0.60218303945785    -0.00000000000000    -0.00000000000000    -0.30089753538693
    3    -0.00000000000011    -0.00000000000000     0.47592346913982     0.00000000000000     0.20859911660884
    4     0.01285003173100    -0.00000000000000     0.00000000000000    -0.02150244122653     0.00000000000000
    5    -0.00000000000000    -0.30089753538693     0.20859911660884     0.00000000000000     0.34141704807942
    6    -0.00000000000000     0.27868640994104    -0.23802473725499     0.00000000000000    -0.24364267407296
    7     0.01285003173100     0.00000000000000     0.00000000000000     0.00865190036355    -0.00000000000000
    8     0.00000000000000    -0.30089753538693    -0.20859911660884     0.00000000000000    -0.04051875579923
    9     0.00000000000000    -0.27868640994104    -0.23802473725499    -0.00000000000000     0.03504352518532

                 6                   7                   8                   9

    1    -0.00000000000000     0.01285003173100     0.00000000000000     0.00000000000000
    2     0.27868640994104     0.00000000000000    -0.30089753538693    -0.27868640994104
    3    -0.23802473725499     0.00000000000000    -0.20859911660884    -0.23802473725499
    4     0.00000000000000     0.00865190036355     0.00000000000000    -0.00000000000000
    5    -0.24364267407296    -0.00000000000000    -0.04051875579923     0.03504352518532
    6     0.22770598141902    -0.00000000000000    -0.03504352518531     0.01031832491853
    7    -0.00000000000000    -0.02150244122653    -0.00000000000000    -0.00000000000000
    8    -0.03504352518531    -0.00000000000000     0.34141704807942     0.24364267407296
    9     0.01031832491853    -0.00000000000000     0.24364267407296     0.22770598141902




*** tstop() called on jonathons-mbp.wireless.emory.edu at Thu Jun 29 14:45:56 2023
Module time:
	user time   =       2.37 seconds =       0.04 minutes
	system time =       0.13 seconds =       0.00 minutes
	total time  =          2 seconds =       0.03 minutes
Total time:
	user time   =      12.26 seconds =       0.20 minutes
	system time =       0.70 seconds =       0.01 minutes
	total time  =         13 seconds =       0.22 minutes


  ==> Harmonic Vibrational Analysis <==

  non-mass-weighted Hessian:       Symmetric? True   Hermitian? True   Lin Dep Dim?  0 (0)
  projection of translations (True) and rotations (False) removed 3 degrees of freedom (6)
  total projector:                 Symmetric? True   Hermitian? True   Lin Dep Dim?  3 (3)
  mass-weighted Hessian:           Symmetric? True   Hermitian? True   Lin Dep Dim?  0 (0)
  pre-proj  low-frequency mode:    0.0000i [cm^-1]
  pre-proj  low-frequency mode:    0.0000i [cm^-1]
  pre-proj  low-frequency mode:    0.0000i [cm^-1]
  pre-proj  low-frequency mode:    0.0000i [cm^-1]
  pre-proj  low-frequency mode:    0.0000i [cm^-1]
  pre-proj  low-frequency mode:   23.9052  [cm^-1]
  pre-proj  all modes:['889.1737i' '789.7859i' '615.9829i' '18.7902i' '13.6432i' '23.9052'
 '1589.9408' '3809.6636' '3899.6413']
  projected mass-weighted Hessian: Symmetric? True   Hermitian? True   Lin Dep Dim?  3 (3)
  post-proj low-frequency mode:  889.1737i [cm^-1] (V)
  post-proj low-frequency mode:  789.7859i [cm^-1] (V)
  post-proj low-frequency mode:  615.9829i [cm^-1] (V)
  post-proj low-frequency mode:    0.0000i [cm^-1] (TR)
  post-proj low-frequency mode:    0.0000i [cm^-1] (TR)
  post-proj low-frequency mode:    0.0000  [cm^-1] (TR)
  post-proj  all modes:['889.1737i' '789.7859i' '615.9829i' '0.0000i' '0.0000i' '0.0000'
 '1589.9408' '3809.6636' '3899.6413']

  Note that "Vibration"s include 3 un-projected rotation-like modes.
  Vibration                       1                   2                   3           
  Freq [cm^-1]                889.1737i           789.7859i           615.9829i       
  Irrep                           A2                  B2                  B1          
  Reduced mass [u]              1.0078              1.0519              1.1259        
  Force const [mDyne/A]        -0.4695             -0.3866             -0.2517        
  Turning point v=0 [a0]        0.0000              0.0000              0.0000        
  RMS dev v=0 [a0 u^1/2]        0.0000              0.0000              0.0000        
  Char temp [K]                 0.0000              0.0000              0.0000        
  ----------------------------------------------------------------------------------
      1   O                0.00  0.00 -0.00   -0.00 -0.05 -0.00   -0.09  0.00 -0.00   
      2   H                0.71 -0.00 -0.00    0.00  0.43  0.56    0.70 -0.00 -0.00   
      3   H               -0.71 -0.00  0.00    0.00  0.43 -0.56    0.70 -0.00  0.00   

  Vibration                       7                   8                   9           
  Freq [cm^-1]                1589.9408           3809.6636           3899.6413       
  Irrep                           A1                  A1                  B2          
  Reduced mass [u]              1.0785              1.0491              1.0756        
  Force const [mDyne/A]         1.6063              8.9712              9.6368        
  Turning point v=0 [a0]        0.2650              0.1736              0.1694        
  RMS dev v=0 [a0 u^1/2]        0.1946              0.1257              0.1242        
  Char temp [K]               2287.5708           5481.2578           5610.7156       
  ----------------------------------------------------------------------------------
      1   O                0.00  0.00 -0.07   -0.00 -0.00  0.05    0.00 -0.07 -0.00   
      2   H               -0.00  0.45  0.54    0.00  0.57 -0.42   -0.00  0.53 -0.46   
      3   H               -0.00 -0.45  0.54    0.00 -0.57 -0.42   -0.00  0.53  0.46   

  ==> Thermochemistry Components <==

  Entropy, S
    Electronic S            1.377 [cal/(mol K)]        5.763 [J/(mol K)]       0.00219507 [mEh/K] (multiplicity = 2)
    Translational S        34.608 [cal/(mol K)]      144.801 [J/(mol K)]       0.05515177 [mEh/K] (mol. weight = 18.0106 [u], P = 101325.00 [Pa])
    Rotational S           10.924 [cal/(mol K)]       45.705 [J/(mol K)]       0.01740823 [mEh/K] (symmetry no. = 2)
    Vibrational S           0.008 [cal/(mol K)]        0.034 [J/(mol K)]       0.00001279 [mEh/K]
  Total S                  46.918 [cal/(mol K)]      196.303 [J/(mol K)]       0.07476786 [mEh/K]
  Correction S              0.000 [cal/(mol K)]        0.000 [J/(mol K)]       0.00000000 [mEh/K]

  Constant volume heat capacity, Cv
    Electronic Cv           0.000 [cal/(mol K)]        0.000 [J/(mol K)]       0.00000000 [mEh/K]
    Translational Cv        2.981 [cal/(mol K)]       12.472 [J/(mol K)]       0.00475022 [mEh/K]
    Rotational Cv           2.981 [cal/(mol K)]       12.472 [J/(mol K)]       0.00475022 [mEh/K]
    Vibrational Cv          0.055 [cal/(mol K)]        0.228 [J/(mol K)]       0.00008687 [mEh/K]
  Total Cv                  6.016 [cal/(mol K)]       25.171 [J/(mol K)]       0.00958730 [mEh/K]
  Correction Cv             0.000 [cal/(mol K)]        0.000 [J/(mol K)]       0.00000000 [mEh/K]

  Constant pressure heat capacity, Cp
    Electronic Cp           0.000 [cal/(mol K)]        0.000 [J/(mol K)]       0.00000000 [mEh/K]
    Translational Cp        4.968 [cal/(mol K)]       20.786 [J/(mol K)]       0.00791703 [mEh/K]
    Rotational Cp           2.981 [cal/(mol K)]       12.472 [J/(mol K)]       0.00475022 [mEh/K]
    Vibrational Cp          0.055 [cal/(mol K)]        0.228 [J/(mol K)]       0.00008687 [mEh/K]
  Total Cp                  8.003 [cal/(mol K)]       33.486 [J/(mol K)]       0.01275411 [mEh/K]
  Correction Cp             0.000 [cal/(mol K)]        0.000 [J/(mol K)]       0.00000000 [mEh/K]

  ==> Thermochemistry Energy Analysis <==

  Raw electronic energy, E0
  Total E0, Electronic energy at well bottom at 0 [K]                  -74.56906097 [Eh]

  Zero-point energy, ZPE_vib = Sum_i nu_i / 2
    Electronic ZPE          0.000 [kcal/mol]        0.000 [kJ/mol]       0.00000000 [Eh]
    Translational ZPE       0.000 [kcal/mol]        0.000 [kJ/mol]       0.00000000 [Eh]
    Rotational ZPE          0.000 [kcal/mol]        0.000 [kJ/mol]       0.00000000 [Eh]
    Vibrational ZPE        13.294 [kcal/mol]       55.622 [kJ/mol]       0.02118524 [Eh]        4649.623 [cm^-1]
  Correction ZPE           13.294 [kcal/mol]       55.622 [kJ/mol]       0.02118524 [Eh]        4649.623 [cm^-1]
  Total ZPE, Electronic energy at 0 [K]                                -74.54787573 [Eh]

  Thermal Energy, E (includes ZPE)
    Electronic E            0.000 [kcal/mol]        0.000 [kJ/mol]       0.00000000 [Eh]
    Translational E         0.889 [kcal/mol]        3.718 [kJ/mol]       0.00141628 [Eh]
    Rotational E            0.889 [kcal/mol]        3.718 [kJ/mol]       0.00141628 [Eh]
    Vibrational E          13.296 [kcal/mol]       55.631 [kJ/mol]       0.02118861 [Eh]
  Correction E             15.074 [kcal/mol]       63.068 [kJ/mol]       0.02402117 [Eh]
  Total E, Electronic energy at  298.15 [K]                            -74.54503981 [Eh]

  Enthalpy, H_trans = E_trans + k_B * T
    Electronic H            0.000 [kcal/mol]        0.000 [kJ/mol]       0.00000000 [Eh]
    Translational H         1.481 [kcal/mol]        6.197 [kJ/mol]       0.00236046 [Eh]
    Rotational H            0.889 [kcal/mol]        3.718 [kJ/mol]       0.00141628 [Eh]
    Vibrational H          13.296 [kcal/mol]       55.631 [kJ/mol]       0.02118861 [Eh]
  Correction H             15.666 [kcal/mol]       65.547 [kJ/mol]       0.02496535 [Eh]
  Total H, Enthalpy at  298.15 [K]                                     -74.54409562 [Eh]

  Gibbs free energy, G = H - T * S
    Electronic G           -0.411 [kcal/mol]       -1.718 [kJ/mol]      -0.00065446 [Eh]
    Translational G        -8.837 [kcal/mol]      -36.975 [kJ/mol]      -0.01408304 [Eh]
    Rotational G           -2.368 [kcal/mol]       -9.909 [kJ/mol]      -0.00377399 [Eh]
    Vibrational G          13.294 [kcal/mol]       55.621 [kJ/mol]       0.02118480 [Eh]
  Correction G              1.678 [kcal/mol]        7.019 [kJ/mol]       0.00267332 [Eh]
  Total G, Free enthalpy at  298.15 [K]                                -74.56638766 [Eh]

 # New Matrix #
 Irrep: 1
      1: -889.155407863523806
      2: -789.856810061435908
      3: -615.926556824335535
      4: 1589.869817284430837
      5: 3809.669038225622444
      6: 3899.663408463844007


 # New Matrix #
 Irrep: 1
      1: -889.173747624625889
      2: -789.785907961158046
      3: -615.982896412579635
      4: 1589.940765599100587
      5: 3809.663643602383218
      6: 3899.641279775717521

    SVWN/sto-3g frequencies, Analytic vs. Finite Difference...............................PASSED

    Psi4 stopped on: Thursday, 29 June 2023 02:45PM
    Psi4 wall time for execution: 0:00:19.43

*** Psi4 exiting successfully. Buy a developer a beer!
