
    -----------------------------------------------------------------------
          Psi4: An Open-Source Ab Initio Electronic Structure Package
                               Psi4 1.6a1.dev168 

                         Git: Rev {libecpint} d6c2d09 dirty


    D. G. A. Smith, L. A. Burns, A. C. Simmonett, R. M. Parrish,
    M. C. Schieber, R. Galvelis, P. Kraus, H. Kruse, R. Di Remigio,
    A. Alenaizan, A. M. James, S. Lehtola, J. P. Misiewicz, M. Scheurer,
    R. A. Shaw, J. B. Schriber, Y. Xie, Z. L. Glick, D. A. Sirianni,
    J. S. O'Brien, J. M. Waldrop, A. Kumar, E. G. Hohenstein,
    B. P. Pritchard, B. R. Brooks, H. F. Schaefer III, A. Yu. Sokolov,
    K. Patkowski, A. E. DePrince III, U. Bozkaya, R. A. King,
    F. A. Evangelista, J. M. Turney, T. D. Crawford, C. D. Sherrill,
    J. Chem. Phys. 152(18) 184108 (2020). https://doi.org/10.1063/5.0006002

                            Additional Code Authors
    E. T. Seidl, C. L. Janssen, E. F. Valeev, M. L. Leininger,
    J. F. Gonthier, R. M. Richard, H. R. McAlexander, M. Saitow, X. Wang,
    P. Verma, M. H. Lechner, and A. Jiang

             Previous Authors, Complete List of Code Contributors,
                       and Citations for Specific Modules
    https://github.com/psi4/psi4/blob/master/codemeta.json
    https://github.com/psi4/psi4/graphs/contributors
    http://psicode.org/psi4manual/master/introduction.html#citing-psifour

    -----------------------------------------------------------------------


    Psi4 started on: Saturday, 30 April 2022 08:42PM

    Process ID: 11855
    Host:       armada.lan
    PSIDATADIR: /Users/andysim/programming/psi4/obj_opt/stage/share/psi4
    Memory:     500.0 MiB
    Threads:    1
    
  ==> Input File <==

--------------------------------------------------------------------------
#! Water-Argon complex with ECP present; check of UHF Hessian

molecule arwater {
    1 2
    Ar           0.000000000000     0.000000000000     1.093338152877
    O            0.000000000000     0.000000000000    -2.481615873104
    H            0.000000000000    -0.854670041110    -1.984056761964
    H           -0.000000000000     0.854670041110    -1.984056761964
}

set = {
    basis          lanl2dz
    d_convergence  12
    reference      uhf
}

# Analytic Hessian
hess2 = hessian('scf')
# Hessian from finite differences of energies
hess0 = hessian('scf', dertype=0)
compare_matrices(hess0, hess2, 3, "UHF ECP finite-diff of energies vs. analytic Hessian to 10^-3") #TEST
# Hessian from finite differences of gradients
hess1 = hessian('scf', dertype=1)
compare_matrices(hess1, hess2, 3, "UHF ECP finite-diff of gradients vs. analytic Hessian to 10^-3") #TEST
--------------------------------------------------------------------------

Scratch directory: /tmp/andysim/
gradient() will perform analytic gradient computation.

*** tstart() called on armada.lan
*** at Sat Apr 30 20:42:42 2022

   => Loading Basis Set <=

    Name: LANL2DZ
    Role: ORBITAL
    Keyword: BASIS
    atoms 1   entry AR         line   286 (ECP: line  1702) file /Users/andysim/programming/psi4/obj_opt/stage/share/psi4/basis/lanl2dz.gbs 
    atoms 2   entry O          line   136 file /Users/andysim/programming/psi4/obj_opt/stage/share/psi4/basis/lanl2dz.gbs 
    atoms 3-4 entry H          line    19 file /Users/andysim/programming/psi4/obj_opt/stage/share/psi4/basis/lanl2dz.gbs 

    !!!  WARNING: ECP capability is in beta. Please check occupations closely.  !!!


         ---------------------------------------------------------
                                   SCF
               by Justin Turney, Rob Parrish, Andy Simmonett
                          and Daniel G. A. Smith
                              UHF Reference
                        1 Threads,    500 MiB Core
         ---------------------------------------------------------

  ==> Geometry <==

    Molecular point group: c2v
    Full point group: C2v

    Geometry (in Angstrom), charge = 1, multiplicity = 2:

       Center              X                  Y                   Z               Mass       
    ------------   -----------------  -----------------  -----------------  -----------------
         AR           0.000000000000     0.000000000000     1.093338152877    39.962383123700
         O            0.000000000000     0.000000000000    -2.481615873104    15.994914619570
         H            0.000000000000    -0.854670041110    -1.984056761964     1.007825032230
         H           -0.000000000000     0.854670041110    -1.984056761964     1.007825032230

  Running in c2v symmetry.

  Rotational constants: A =     11.44944  B =      0.10932  C =      0.10828 [cm^-1]
  Rotational constants: A = 343245.69650  B =   3277.24495  C =   3246.25037 [MHz]
  Nuclear repulsion =   20.995468720793891

  Charge       = 1
  Multiplicity = 2
  Electrons    = 17
  Nalpha       = 9
  Nbeta        = 8

  ==> Algorithm <==

  SCF Algorithm Type is DF.
  DIIS enabled.
  MOM disabled.
  Fractional occupation disabled.
  Guess Type is SAD.
  Energy threshold   = 1.00e-08
  Density threshold  = 1.00e-12
  Integral threshold = 1.00e-12

  ==> Primary Basis <==

  Basis Set: LANL2DZ
    Blend: LANL2DZ
    Number of shells: 13
    Number of basis functions: 21
    Number of Cartesian functions: 21
    Spherical Harmonics?: false
    Max angular momentum: 1

  Core potential: LANL2DZ
    Number of shells: 3
    Number of ECP primitives: 16
    Number of ECP core electrons: 10
    Max angular momentum: 2

   => Loading Basis Set <=

    Name: (LANL2DZ AUX)
    Role: JKFIT
    Keyword: DF_BASIS_SCF
    atoms 1   entry AR         line  1069 file /Users/andysim/programming/psi4/obj_opt/stage/share/psi4/basis/def2-universal-jkfit.gbs 
    atoms 2   entry O          line   318 file /Users/andysim/programming/psi4/obj_opt/stage/share/psi4/basis/def2-universal-jkfit.gbs 
    atoms 3-4 entry H          line    18 file /Users/andysim/programming/psi4/obj_opt/stage/share/psi4/basis/def2-universal-jkfit.gbs 

  ==> Integral Setup <==

  DFHelper Memory: AOs need 0.002 GiB; user supplied 0.366 GiB. Using in-core AOs.

  ==> MemDFJK: Density-Fitted J/K Matrices <==

    J tasked:                   Yes
    K tasked:                   Yes
    wK tasked:                   No
    OpenMP threads:               1
    Memory [MiB]:               375
    Algorithm:                 Core
    Schwarz Cutoff:           1E-12
    Mask sparsity (%):       0.9070
    Fitting Condition:        1E-10

   => Auxiliary Basis Set <=

  Basis Set: (LANL2DZ AUX)
    Blend: DEF2-UNIVERSAL-JKFIT
    Number of shells: 75
    Number of basis functions: 288
    Number of Cartesian functions: 288
    Spherical Harmonics?: false
    Max angular momentum: 4

  Minimum eigenvalue in the overlap matrix is 6.1549921244E-02.
  Reciprocal condition number of the overlap matrix is 2.0648866425E-02.
    Using symmetric orthogonalization.

  ==> Pre-Iterations <==

  SCF Guess: Superposition of Atomic Densities via on-the-fly atomic UHF (no occupation information).

   -------------------------
    Irrep   Nso     Nmo    
   -------------------------
     A1        11      11 
     A2         0       0 
     B1         4       4 
     B2         6       6 
   -------------------------
    Total      21      21
   -------------------------

  ==> Iterations <==

                           Total Energy        Delta E     RMS |[F,P]|

   @DF-UHF iter SAD:   -94.11413948284044   -9.41141e+01   0.00000e+00 
   @DF-UHF iter   1:   -96.02894472730787   -1.91481e+00   3.16291e-02 DIIS/ADIIS
   @DF-UHF iter   2:   -96.05787815009397   -2.89334e-02   5.12115e-02 DIIS/ADIIS
   @DF-UHF iter   3:   -96.23425956055571   -1.76381e-01   1.52638e-02 DIIS/ADIIS
   @DF-UHF iter   4:   -96.26940987233434   -3.51503e-02   1.03791e-02 DIIS/ADIIS
   @DF-UHF iter   5:   -96.28576149530264   -1.63516e-02   1.02855e-03 DIIS/ADIIS
   @DF-UHF iter   6:   -96.28593615915875   -1.74664e-04   5.03326e-04 DIIS/ADIIS
   @DF-UHF iter   7:   -96.28600063869851   -6.44795e-05   1.99088e-04 DIIS/ADIIS
   @DF-UHF iter   8:   -96.28601053561303   -9.89691e-06   7.68026e-05 DIIS
   @DF-UHF iter   9:   -96.28601171693501   -1.18132e-06   1.38134e-05 DIIS
   @DF-UHF iter  10:   -96.28601179653728   -7.96023e-08   1.97741e-06 DIIS
   @DF-UHF iter  11:   -96.28601179760491   -1.06763e-09   6.44864e-07 DIIS
   @DF-UHF iter  12:   -96.28601179769777   -9.28537e-11   1.32115e-07 DIIS
   @DF-UHF iter  13:   -96.28601179769981   -2.04636e-12   2.55474e-08 DIIS
   @DF-UHF iter  14:   -96.28601179770003   -2.13163e-13   9.46930e-09 DIIS
   @DF-UHF iter  15:   -96.28601179770001    1.42109e-14   5.54562e-10 DIIS
   @DF-UHF iter  16:   -96.28601179770003   -1.42109e-14   1.20753e-10 DIIS
   @DF-UHF iter  17:   -96.28601179770001    1.42109e-14   2.33549e-11 DIIS
   @DF-UHF iter  18:   -96.28601179770004   -2.84217e-14   5.82258e-12 DIIS
   @DF-UHF iter  19:   -96.28601179769998    5.68434e-14   1.67516e-12 DIIS
   @DF-UHF iter  20:   -96.28601179770001   -2.84217e-14   6.15328e-13 DIIS
  Energy and wave function converged.


  ==> Post-Iterations <==

   @Spin Contamination Metric:   6.239561645E-03
   @S^2 Expected:                7.500000000E-01
   @S^2 Observed:                7.562395616E-01
   @S   Expected:                5.000000000E-01
   @S   Observed:                5.000000000E-01

    Orbital Energies [Eh]
    ---------------------

    Alpha Occupied:                                                       

       1A1   -21.109639     2A1    -1.890127     3A1    -1.432442  
       1B2    -1.220222     1B1    -1.114590     4A1    -1.055567  
       5A1    -0.759787     2B2    -0.754351     2B1    -0.753820  

    Alpha Virtual:                                                        

       6A1    -0.131266     3B2    -0.038407     3B1     0.403320  
       7A1     0.463399     4B2     0.601511     8A1     0.667448  
       5B2     0.760717     4B1     0.785613     6B2     0.852440  
       9A1     0.867343    10A1     1.253354    11A1     5.230484  

    Beta Occupied:                                                        

       1A1   -21.062856     2A1    -1.725081     3A1    -1.432486  
       1B2    -1.178521     4A1    -0.993217     5A1    -0.759779  
       2B2    -0.754367     1B1    -0.753825  

    Beta Virtual:                                                         

       2B1    -0.311957     6A1    -0.115851     3B2    -0.027560  
       7A1     0.483523     3B1     0.577499     4B2     0.612537  
       8A1     0.672290     5B2     0.762053     4B1     0.785936  
       6B2     0.857718     9A1     0.868516    10A1     1.303711  
      11A1     5.230502  

    Final Occupation by Irrep:
             A1    A2    B1    B2 
    DOCC [     5,    0,    1,    2 ]
    SOCC [     0,    0,    1,    0 ]

  @DF-UHF Final Energy:   -96.28601179770001

   => Energetics <=

    Nuclear Repulsion Energy =             20.9954687207938910
    One-Electron Energy =                -175.8122834265514030
    Two-Electron Energy =                  58.5308029080574954
    Total Energy =                        -96.2860117977000129

  UHF NO Occupations:
  HONO-2 :    2 B2 1.9987757
  HONO-1 :    5 A1 1.9984591
  HONO-0 :    2 B1 1.0000000
  LUNO+0 :    6 A1 0.0015409
  LUNO+1 :    3 B2 0.0012243
  LUNO+2 :    7 A1 0.0003559
  LUNO+3 :    8 A1 0.0000002


Computation Completed


Properties will be evaluated at   0.000000,   0.000000,   0.000000 [a0]

Properties computed using the SCF density matrix


 Multipole Moments:

 ------------------------------------------------------------------------------------
     Multipole            Electronic (a.u.)      Nuclear  (a.u.)        Total (a.u.)
 ------------------------------------------------------------------------------------

 L = 1.  Multiply by 2.5417464519 to convert [e a0] to [Debye]
 Dipole X            :          0.0000000            0.0000000            0.0000000
 Dipole Y            :          0.0000000            0.0000000            0.0000000
 Dipole Z            :         25.0154229          -28.4863652           -3.4709423
 Magnitude           :                                                    3.4709423

 ------------------------------------------------------------------------------------

*** tstop() called on armada.lan at Sat Apr 30 20:42:42 2022
Module time:
	user time   =       0.27 seconds =       0.00 minutes
	system time =       0.02 seconds =       0.00 minutes
	total time  =          0 seconds =       0.00 minutes
Total time:
	user time   =       0.27 seconds =       0.00 minutes
	system time =       0.02 seconds =       0.00 minutes
	total time  =          0 seconds =       0.00 minutes

*** tstart() called on armada.lan
*** at Sat Apr 30 20:42:42 2022


         ------------------------------------------------------------
                                   SCF GRAD                          
                          Rob Parrish, Justin Turney,                
                       Andy Simmonett, and Alex Sokolov              
         ------------------------------------------------------------

  ==> Geometry <==

    Molecular point group: c2v
    Full point group: C2v

    Geometry (in Angstrom), charge = 1, multiplicity = 2:

       Center              X                  Y                   Z               Mass       
    ------------   -----------------  -----------------  -----------------  -----------------
         AR           0.000000000000     0.000000000000     1.093338152877    39.962383123700
         O            0.000000000000     0.000000000000    -2.481615873104    15.994914619570
         H            0.000000000000    -0.854670041110    -1.984056761964     1.007825032230
         H           -0.000000000000     0.854670041110    -1.984056761964     1.007825032230

  Nuclear repulsion =   20.995468720793891

  ==> Basis Set <==

  Basis Set: LANL2DZ
    Blend: LANL2DZ
    Number of shells: 13
    Number of basis functions: 21
    Number of Cartesian functions: 21
    Spherical Harmonics?: false
    Max angular momentum: 1

  Core potential: LANL2DZ
    Number of shells: 3
    Number of ECP primitives: 16
    Number of ECP core electrons: 10
    Max angular momentum: 2

  ==> DFJKGrad: Density-Fitted SCF Gradients <==

    Gradient:                    1
    J tasked:                  Yes
    K tasked:                  Yes
    wK tasked:                  No
    OpenMP threads:              1
    Integrals threads:           1
    Memory [MiB]:              375
    Schwarz Cutoff:          1E-12
    Fitting Condition:       1E-10

   => Auxiliary Basis Set <=

  Basis Set: (LANL2DZ AUX)
    Blend: DEF2-UNIVERSAL-JKFIT
    Number of shells: 75
    Number of basis functions: 288
    Number of Cartesian functions: 288
    Spherical Harmonics?: false
    Max angular momentum: 4


  -Total Gradient:
     Atom            X                  Y                   Z
    ------   -----------------  -----------------  -----------------
       1        0.000000000000     0.000000000000     0.000198160789
       2        0.000000000000     0.000000000000    -0.000001437961
       3        0.000000000000    -0.000024866975    -0.000098361414
       4       -0.000000000000     0.000024866975    -0.000098361414


*** tstop() called on armada.lan at Sat Apr 30 20:42:43 2022
Module time:
	user time   =       0.06 seconds =       0.00 minutes
	system time =       0.01 seconds =       0.00 minutes
	total time  =          1 seconds =       0.02 minutes
Total time:
	user time   =       0.33 seconds =       0.01 minutes
	system time =       0.03 seconds =       0.00 minutes
	total time  =          1 seconds =       0.02 minutes

  Based on options and gradient (rms=7.06E-05), recommend projecting translations and projecting rotations.
hessian() will perform analytic frequency computation.

*** tstart() called on armada.lan
*** at Sat Apr 30 20:42:43 2022

   => Loading Basis Set <=

    Name: LANL2DZ
    Role: ORBITAL
    Keyword: BASIS
    atoms 1   entry AR         line   286 (ECP: line  1702) file /Users/andysim/programming/psi4/obj_opt/stage/share/psi4/basis/lanl2dz.gbs 
    atoms 2   entry O          line   136 file /Users/andysim/programming/psi4/obj_opt/stage/share/psi4/basis/lanl2dz.gbs 
    atoms 3-4 entry H          line    19 file /Users/andysim/programming/psi4/obj_opt/stage/share/psi4/basis/lanl2dz.gbs 

    !!!  WARNING: ECP capability is in beta. Please check occupations closely.  !!!


         ---------------------------------------------------------
                                   SCF
               by Justin Turney, Rob Parrish, Andy Simmonett
                          and Daniel G. A. Smith
                              UHF Reference
                        1 Threads,    500 MiB Core
         ---------------------------------------------------------

  ==> Geometry <==

    Molecular point group: c2v
    Full point group: C2v

    Geometry (in Angstrom), charge = 1, multiplicity = 2:

       Center              X                  Y                   Z               Mass       
    ------------   -----------------  -----------------  -----------------  -----------------
         AR           0.000000000000     0.000000000000     1.093338152877    39.962383123700
         O            0.000000000000     0.000000000000    -2.481615873104    15.994914619570
         H            0.000000000000    -0.854670041110    -1.984056761964     1.007825032230
         H           -0.000000000000     0.854670041110    -1.984056761964     1.007825032230

  Running in c2v symmetry.

  Rotational constants: A =     11.44944  B =      0.10932  C =      0.10828 [cm^-1]
  Rotational constants: A = 343245.69650  B =   3277.24495  C =   3246.25037 [MHz]
  Nuclear repulsion =   20.995468720793891

  Charge       = 1
  Multiplicity = 2
  Electrons    = 17
  Nalpha       = 9
  Nbeta        = 8

  ==> Algorithm <==

  SCF Algorithm Type is DF.
  DIIS enabled.
  MOM disabled.
  Fractional occupation disabled.
  Guess Type is SAD.
  Energy threshold   = 1.00e-08
  Density threshold  = 1.00e-12
  Integral threshold = 1.00e-12

  ==> Primary Basis <==

  Basis Set: LANL2DZ
    Blend: LANL2DZ
    Number of shells: 13
    Number of basis functions: 21
    Number of Cartesian functions: 21
    Spherical Harmonics?: false
    Max angular momentum: 1

  Core potential: LANL2DZ
    Number of shells: 3
    Number of ECP primitives: 16
    Number of ECP core electrons: 10
    Max angular momentum: 2

   => Loading Basis Set <=

    Name: (LANL2DZ AUX)
    Role: JKFIT
    Keyword: DF_BASIS_SCF
    atoms 1   entry AR         line  1069 file /Users/andysim/programming/psi4/obj_opt/stage/share/psi4/basis/def2-universal-jkfit.gbs 
    atoms 2   entry O          line   318 file /Users/andysim/programming/psi4/obj_opt/stage/share/psi4/basis/def2-universal-jkfit.gbs 
    atoms 3-4 entry H          line    18 file /Users/andysim/programming/psi4/obj_opt/stage/share/psi4/basis/def2-universal-jkfit.gbs 

  ==> Integral Setup <==

  DFHelper Memory: AOs need 0.002 GiB; user supplied 0.366 GiB. Using in-core AOs.

  ==> MemDFJK: Density-Fitted J/K Matrices <==

    J tasked:                   Yes
    K tasked:                   Yes
    wK tasked:                   No
    OpenMP threads:               1
    Memory [MiB]:               375
    Algorithm:                 Core
    Schwarz Cutoff:           1E-12
    Mask sparsity (%):       0.9070
    Fitting Condition:        1E-10

   => Auxiliary Basis Set <=

  Basis Set: (LANL2DZ AUX)
    Blend: DEF2-UNIVERSAL-JKFIT
    Number of shells: 75
    Number of basis functions: 288
    Number of Cartesian functions: 288
    Spherical Harmonics?: false
    Max angular momentum: 4

  Minimum eigenvalue in the overlap matrix is 6.1549921244E-02.
  Reciprocal condition number of the overlap matrix is 2.0648866425E-02.
    Using symmetric orthogonalization.

  ==> Pre-Iterations <==

  SCF Guess: Superposition of Atomic Densities via on-the-fly atomic UHF (no occupation information).

   -------------------------
    Irrep   Nso     Nmo    
   -------------------------
     A1        11      11 
     A2         0       0 
     B1         4       4 
     B2         6       6 
   -------------------------
    Total      21      21
   -------------------------

  ==> Iterations <==

                           Total Energy        Delta E     RMS |[F,P]|

   @DF-UHF iter SAD:   -94.11413948284044   -9.41141e+01   0.00000e+00 
   @DF-UHF iter   1:   -96.02894472730787   -1.91481e+00   3.16291e-02 DIIS/ADIIS
   @DF-UHF iter   2:   -96.05787815009397   -2.89334e-02   5.12115e-02 DIIS/ADIIS
   @DF-UHF iter   3:   -96.23425956055571   -1.76381e-01   1.52638e-02 DIIS/ADIIS
   @DF-UHF iter   4:   -96.26940987233434   -3.51503e-02   1.03791e-02 DIIS/ADIIS
   @DF-UHF iter   5:   -96.28576149530264   -1.63516e-02   1.02855e-03 DIIS/ADIIS
   @DF-UHF iter   6:   -96.28593615915875   -1.74664e-04   5.03326e-04 DIIS/ADIIS
   @DF-UHF iter   7:   -96.28600063869851   -6.44795e-05   1.99088e-04 DIIS/ADIIS
   @DF-UHF iter   8:   -96.28601053561303   -9.89691e-06   7.68026e-05 DIIS
   @DF-UHF iter   9:   -96.28601171693501   -1.18132e-06   1.38134e-05 DIIS
   @DF-UHF iter  10:   -96.28601179653728   -7.96023e-08   1.97741e-06 DIIS
   @DF-UHF iter  11:   -96.28601179760491   -1.06763e-09   6.44864e-07 DIIS
   @DF-UHF iter  12:   -96.28601179769777   -9.28537e-11   1.32115e-07 DIIS
   @DF-UHF iter  13:   -96.28601179769981   -2.04636e-12   2.55474e-08 DIIS
   @DF-UHF iter  14:   -96.28601179770003   -2.13163e-13   9.46930e-09 DIIS
   @DF-UHF iter  15:   -96.28601179770001    1.42109e-14   5.54562e-10 DIIS
   @DF-UHF iter  16:   -96.28601179770003   -1.42109e-14   1.20753e-10 DIIS
   @DF-UHF iter  17:   -96.28601179770001    1.42109e-14   2.33549e-11 DIIS
   @DF-UHF iter  18:   -96.28601179770004   -2.84217e-14   5.82258e-12 DIIS
   @DF-UHF iter  19:   -96.28601179769998    5.68434e-14   1.67516e-12 DIIS
   @DF-UHF iter  20:   -96.28601179770001   -2.84217e-14   6.15328e-13 DIIS
  Energy and wave function converged.


  ==> Post-Iterations <==

   @Spin Contamination Metric:   6.239561645E-03
   @S^2 Expected:                7.500000000E-01
   @S^2 Observed:                7.562395616E-01
   @S   Expected:                5.000000000E-01
   @S   Observed:                5.000000000E-01

    Orbital Energies [Eh]
    ---------------------

    Alpha Occupied:                                                       

       1A1   -21.109639     2A1    -1.890127     3A1    -1.432442  
       1B2    -1.220222     1B1    -1.114590     4A1    -1.055567  
       5A1    -0.759787     2B2    -0.754351     2B1    -0.753820  

    Alpha Virtual:                                                        

       6A1    -0.131266     3B2    -0.038407     3B1     0.403320  
       7A1     0.463399     4B2     0.601511     8A1     0.667448  
       5B2     0.760717     4B1     0.785613     6B2     0.852440  
       9A1     0.867343    10A1     1.253354    11A1     5.230484  

    Beta Occupied:                                                        

       1A1   -21.062856     2A1    -1.725081     3A1    -1.432486  
       1B2    -1.178521     4A1    -0.993217     5A1    -0.759779  
       2B2    -0.754367     1B1    -0.753825  

    Beta Virtual:                                                         

       2B1    -0.311957     6A1    -0.115851     3B2    -0.027560  
       7A1     0.483523     3B1     0.577499     4B2     0.612537  
       8A1     0.672290     5B2     0.762053     4B1     0.785936  
       6B2     0.857718     9A1     0.868516    10A1     1.303711  
      11A1     5.230502  

    Final Occupation by Irrep:
             A1    A2    B1    B2 
    DOCC [     5,    0,    1,    2 ]
    SOCC [     0,    0,    1,    0 ]

  @DF-UHF Final Energy:   -96.28601179770001

   => Energetics <=

    Nuclear Repulsion Energy =             20.9954687207938910
    One-Electron Energy =                -175.8122834265514030
    Two-Electron Energy =                  58.5308029080574954
    Total Energy =                        -96.2860117977000129

  UHF NO Occupations:
  HONO-2 :    2 B2 1.9987757
  HONO-1 :    5 A1 1.9984591
  HONO-0 :    2 B1 1.0000000
  LUNO+0 :    6 A1 0.0015409
  LUNO+1 :    3 B2 0.0012243
  LUNO+2 :    7 A1 0.0003559
  LUNO+3 :    8 A1 0.0000002


Computation Completed


Properties will be evaluated at   0.000000,   0.000000,   0.000000 [a0]

Properties computed using the SCF density matrix


 Multipole Moments:

 ------------------------------------------------------------------------------------
     Multipole            Electronic (a.u.)      Nuclear  (a.u.)        Total (a.u.)
 ------------------------------------------------------------------------------------

 L = 1.  Multiply by 2.5417464519 to convert [e a0] to [Debye]
 Dipole X            :          0.0000000            0.0000000            0.0000000
 Dipole Y            :          0.0000000            0.0000000            0.0000000
 Dipole Z            :         25.0154229          -28.4863652           -3.4709423
 Magnitude           :                                                    3.4709423

 ------------------------------------------------------------------------------------

*** tstop() called on armada.lan at Sat Apr 30 20:42:43 2022
Module time:
	user time   =       0.24 seconds =       0.00 minutes
	system time =       0.01 seconds =       0.00 minutes
	total time  =          0 seconds =       0.00 minutes
Total time:
	user time   =       0.57 seconds =       0.01 minutes
	system time =       0.04 seconds =       0.00 minutes
	total time  =          1 seconds =       0.02 minutes

*** tstart() called on armada.lan
*** at Sat Apr 30 20:42:43 2022


         ------------------------------------------------------------
                                   SCF HESS                          
                          Rob Parrish, Justin Turney,                
                       Andy Simmonett, and Alex Sokolov              
         ------------------------------------------------------------

  ==> Geometry <==

    Molecular point group: c2v
    Full point group: C2v

    Geometry (in Angstrom), charge = 1, multiplicity = 2:

       Center              X                  Y                   Z               Mass       
    ------------   -----------------  -----------------  -----------------  -----------------
         AR           0.000000000000     0.000000000000     1.093338152877    39.962383123700
         O            0.000000000000     0.000000000000    -2.481615873104    15.994914619570
         H            0.000000000000    -0.854670041110    -1.984056761964     1.007825032230
         H           -0.000000000000     0.854670041110    -1.984056761964     1.007825032230

  Nuclear repulsion =   20.995468720793891

  ==> Basis Set <==

  Basis Set: LANL2DZ
    Blend: LANL2DZ
    Number of shells: 13
    Number of basis functions: 21
    Number of Cartesian functions: 21
    Spherical Harmonics?: false
    Max angular momentum: 1

  Core potential: LANL2DZ
    Number of shells: 3
    Number of ECP primitives: 16
    Number of ECP core electrons: 10
    Max angular momentum: 2

  ==> DFJKGrad: Density-Fitted SCF Gradients <==

    Gradient:                    2
    J tasked:                  Yes
    K tasked:                  Yes
    wK tasked:                  No
    OpenMP threads:              1
    Integrals threads:           1
    Memory [MiB]:              375
    Schwarz Cutoff:          1E-12
    Fitting Condition:       1E-10

   => Auxiliary Basis Set <=

  Basis Set: (LANL2DZ AUX)
    Blend: DEF2-UNIVERSAL-JKFIT
    Number of shells: 75
    Number of basis functions: 288
    Number of Cartesian functions: 288
    Spherical Harmonics?: false
    Max angular momentum: 4

  DFHelper Memory: AOs need 0.002 GiB; user supplied 0.439 GiB. Using in-core AOs.

  ==> MemDFJK: Density-Fitted J/K Matrices <==

    J tasked:                   Yes
    K tasked:                   Yes
    wK tasked:                   No
    OpenMP threads:               1
    Memory [MiB]:               450
    Algorithm:                 Core
    Schwarz Cutoff:           1E-12
    Mask sparsity (%):       0.9070
    Fitting Condition:        1E-10

   => Auxiliary Basis Set <=

  Basis Set: (LANL2DZ AUX)
    Blend: DEF2-UNIVERSAL-JKFIT
    Number of shells: 75
    Number of basis functions: 288
    Number of Cartesian functions: 288
    Spherical Harmonics?: false
    Max angular momentum: 4

  ==> MemDFJK: Density-Fitted J/K Matrices <==

    J tasked:                   Yes
    K tasked:                   Yes
    wK tasked:                   No
    OpenMP threads:               1
    Memory [MiB]:               450
    Algorithm:                 Core
    Schwarz Cutoff:           1E-12
    Mask sparsity (%):       0.9070
    Fitting Condition:        1E-10

   => Auxiliary Basis Set <=

  Basis Set: (LANL2DZ AUX)
    Blend: DEF2-UNIVERSAL-JKFIT
    Number of shells: 75
    Number of basis functions: 288
    Number of Cartesian functions: 288
    Spherical Harmonics?: false
    Max angular momentum: 4


   ==> Coupled-Perturbed UHF Solver <==

    Maxiter             =         100
    Convergence         =   1.000E-06
    Number of equations =          24
   -----------------------------------------------------
     Iter   Residual RMS      Max RMS  Remain  Time [s]
   -----------------------------------------------------
        1      4.247e-01    6.414e-01      12         0
        2      1.091e-01    3.278e-01      12         0
        3      8.123e-02    4.240e-01      12         0
        4      5.277e-02    2.430e-01      12         0
        5      1.743e-02    8.891e-02      12         0
        6      3.070e-03    1.529e-02      12         0
        7      6.399e-04    3.196e-03      12         0
        8      7.819e-05    3.284e-04      11         0
        9      1.360e-05    3.962e-05      10         0
       10      2.084e-06    6.425e-06       4         0
       11      5.374e-07    7.900e-07       0         0
  ## Total Hessian (Symmetry 0) ##
  Irrep: 1 Size: 12 x 12

                 1                   2                   3                   4                   5

    1     0.00003800461628     0.00000000000000     0.00000000000000     0.00002430485834     0.00000000000000
    2     0.00000000000000    -0.00010187791516    -0.00000000000003     0.00000000000000     0.00006906446016
    3     0.00000000000000    -0.00000000000003     0.00150616871347     0.00000000000000     0.00000000000360
    4     0.00002430485834     0.00000000000000     0.00000000000000     0.00015186241915     0.00000000000000
    5     0.00000000000000     0.00006906446016     0.00000000000360     0.00000000000000     0.70229923591187
    6     0.00000000000000    -0.00000000000132    -0.00178972444419    -0.00000000000001     0.00000000002772
    7    -0.00003115473039    -0.00000000000000    -0.00000000000000    -0.00008808373535    -0.00000000000001
    8    -0.00000000000000     0.00001640672398     0.00067022379881    -0.00000000000001    -0.35118415024788
    9    -0.00000000000000     0.00026486500666     0.00014177835376     0.00000000000000     0.20430228454341
   10    -0.00003115473449    -0.00000000000000    -0.00000000000000    -0.00008808355678     0.00000000000001
   11    -0.00000000000000     0.00001640672556    -0.00067022388528     0.00000000000001    -0.35118415025589
   12    -0.00000000000000    -0.00026486500032     0.00014177841651     0.00000000000000    -0.20430228451358

                 6                   7                   8                   9                  10

    1     0.00000000000000    -0.00003115473039    -0.00000000000000    -0.00000000000000    -0.00003115473449
    2    -0.00000000000132    -0.00000000000000     0.00001640672398     0.00026486500666    -0.00000000000000
    3    -0.00178972444419    -0.00000000000000     0.00067022379881     0.00014177835376    -0.00000000000000
    4    -0.00000000000001    -0.00008808373535    -0.00000000000001     0.00000000000000    -0.00008808355678
    5     0.00000000002772    -0.00000000000001    -0.35118415024788     0.20430228454341     0.00000000000001
    6     0.32219749332403     0.00000000000000     0.16576336748302    -0.16020388491484     0.00000000000000
    7     0.00000000000000     0.00006731913301     0.00000000000001    -0.00000000000000     0.00005191933607
    8     0.16576336748302     0.00000000000001     0.36700758423602    -0.18550037038920    -0.00000000000000
    9    -0.16020388491484    -0.00000000000000    -0.18550037038920     0.13903074076882     0.00000000000000
   10     0.00000000000000     0.00005191933607    -0.00000000000000     0.00000000000000     0.00006731896149
   11    -0.16576336743750     0.00000000000000    -0.01583984066744    -0.01906677917195    -0.00000000000001
   12    -0.16020388496691     0.00000000000000     0.01906677912182     0.02103136578766    -0.00000000000000

                11                  12

    1    -0.00000000000000    -0.00000000000000
    2     0.00001640672556    -0.00026486500032
    3    -0.00067022388528     0.00014177841651
    4     0.00000000000001     0.00000000000000
    5    -0.35118415025589    -0.20430228451358
    6    -0.16576336743750    -0.16020388496691
    7     0.00000000000000     0.00000000000000
    8    -0.01583984066744     0.01906677912182
    9    -0.01906677917195     0.02103136578766
   10    -0.00000000000001    -0.00000000000000
   11     0.36700758427075     0.18550037042661
   12     0.18550037042661     0.13903074072540




*** tstop() called on armada.lan at Sat Apr 30 20:42:44 2022
Module time:
	user time   =       0.95 seconds =       0.02 minutes
	system time =       0.03 seconds =       0.00 minutes
	total time  =          1 seconds =       0.02 minutes
Total time:
	user time   =       1.52 seconds =       0.03 minutes
	system time =       0.07 seconds =       0.00 minutes
	total time  =          2 seconds =       0.03 minutes

Scratch directory: /tmp/andysim/
gradient() will perform gradient computation by finite difference of analytic energies.

         ----------------------------------------------------------
                                   FINDIF
                     R. A. King and Jonathon Misiewicz
         ---------------------------------------------------------

  Using finite-differences of energies to determine gradients.
    Generating geometries for use with 3-point formula.
    Displacement size will be 5.00e-03.
    Number of atoms is 4.
    Number of symmetric SALCs is 3.
    Translations projected? 1. Rotations projected? 1.
    Number of geometries (including reference) is 7.

  //>>>>>>>>>>>>>>>>>>>>>>>>>>>>>>>>>>>//
  //    Loading displacement 1 of 7    //
  //<<<<<<<<<<<<<<<<<<<<<<<<<<<<<<<<<<<//

Scratch directory: /tmp/andysim/

*** tstart() called on armada.lan
*** at Sat Apr 30 20:42:44 2022

   => Loading Basis Set <=

    Name: LANL2DZ
    Role: ORBITAL
    Keyword: BASIS
    atoms 1   entry AR         line   286 (ECP: line  1702) file /Users/andysim/programming/psi4/obj_opt/stage/share/psi4/basis/lanl2dz.gbs 
    atoms 2   entry O          line   136 file /Users/andysim/programming/psi4/obj_opt/stage/share/psi4/basis/lanl2dz.gbs 
    atoms 3-4 entry H          line    19 file /Users/andysim/programming/psi4/obj_opt/stage/share/psi4/basis/lanl2dz.gbs 

    !!!  WARNING: ECP capability is in beta. Please check occupations closely.  !!!


         ---------------------------------------------------------
                                   SCF
               by Justin Turney, Rob Parrish, Andy Simmonett
                          and Daniel G. A. Smith
                              UHF Reference
                        1 Threads,    500 MiB Core
         ---------------------------------------------------------

  ==> Geometry <==

    Molecular point group: c2v
    Full point group: C2v

    Geometry (in Angstrom), charge = 1, multiplicity = 2:

       Center              X                  Y                   Z               Mass       
    ------------   -----------------  -----------------  -----------------  -----------------
         AR           0.000000000000     0.000000000000     1.093338152877    39.962383123700
         O            0.000000000000     0.000000000000    -2.481615873104    15.994914619570
         H            0.000000000000    -0.854670041110    -1.984056761964     1.007825032230
         H           -0.000000000000     0.854670041110    -1.984056761964     1.007825032230

  Running in c2v symmetry.

  Rotational constants: A =     11.44944  B =      0.10932  C =      0.10828 [cm^-1]
  Rotational constants: A = 343245.69650  B =   3277.24495  C =   3246.25037 [MHz]
  Nuclear repulsion =   20.995468720793891

  Charge       = 1
  Multiplicity = 2
  Electrons    = 17
  Nalpha       = 9
  Nbeta        = 8

  ==> Algorithm <==

  SCF Algorithm Type is DF.
  DIIS enabled.
  MOM disabled.
  Fractional occupation disabled.
  Guess Type is SAD.
  Energy threshold   = 1.00e-08
  Density threshold  = 1.00e-12
  Integral threshold = 1.00e-12

  ==> Primary Basis <==

  Basis Set: LANL2DZ
    Blend: LANL2DZ
    Number of shells: 13
    Number of basis functions: 21
    Number of Cartesian functions: 21
    Spherical Harmonics?: false
    Max angular momentum: 1

  Core potential: LANL2DZ
    Number of shells: 3
    Number of ECP primitives: 16
    Number of ECP core electrons: 10
    Max angular momentum: 2

   => Loading Basis Set <=

    Name: (LANL2DZ AUX)
    Role: JKFIT
    Keyword: DF_BASIS_SCF
    atoms 1   entry AR         line  1069 file /Users/andysim/programming/psi4/obj_opt/stage/share/psi4/basis/def2-universal-jkfit.gbs 
    atoms 2   entry O          line   318 file /Users/andysim/programming/psi4/obj_opt/stage/share/psi4/basis/def2-universal-jkfit.gbs 
    atoms 3-4 entry H          line    18 file /Users/andysim/programming/psi4/obj_opt/stage/share/psi4/basis/def2-universal-jkfit.gbs 

  ==> Integral Setup <==

  DFHelper Memory: AOs need 0.002 GiB; user supplied 0.366 GiB. Using in-core AOs.

  ==> MemDFJK: Density-Fitted J/K Matrices <==

    J tasked:                   Yes
    K tasked:                   Yes
    wK tasked:                   No
    OpenMP threads:               1
    Memory [MiB]:               375
    Algorithm:                 Core
    Schwarz Cutoff:           1E-12
    Mask sparsity (%):       0.9070
    Fitting Condition:        1E-10

   => Auxiliary Basis Set <=

  Basis Set: (LANL2DZ AUX)
    Blend: DEF2-UNIVERSAL-JKFIT
    Number of shells: 75
    Number of basis functions: 288
    Number of Cartesian functions: 288
    Spherical Harmonics?: false
    Max angular momentum: 4

  Minimum eigenvalue in the overlap matrix is 6.1549921244E-02.
  Reciprocal condition number of the overlap matrix is 2.0648866425E-02.
    Using symmetric orthogonalization.

  ==> Pre-Iterations <==

  SCF Guess: Superposition of Atomic Densities via on-the-fly atomic UHF (no occupation information).

   -------------------------
    Irrep   Nso     Nmo    
   -------------------------
     A1        11      11 
     A2         0       0 
     B1         4       4 
     B2         6       6 
   -------------------------
    Total      21      21
   -------------------------

  ==> Iterations <==

                           Total Energy        Delta E     RMS |[F,P]|

   @DF-UHF iter SAD:   -94.11413948284044   -9.41141e+01   0.00000e+00 
   @DF-UHF iter   1:   -96.02894472730787   -1.91481e+00   3.16291e-02 DIIS/ADIIS
   @DF-UHF iter   2:   -96.05787815009397   -2.89334e-02   5.12115e-02 DIIS/ADIIS
   @DF-UHF iter   3:   -96.23425956055571   -1.76381e-01   1.52638e-02 DIIS/ADIIS
   @DF-UHF iter   4:   -96.26940987233434   -3.51503e-02   1.03791e-02 DIIS/ADIIS
   @DF-UHF iter   5:   -96.28576149530264   -1.63516e-02   1.02855e-03 DIIS/ADIIS
   @DF-UHF iter   6:   -96.28593615915875   -1.74664e-04   5.03326e-04 DIIS/ADIIS
   @DF-UHF iter   7:   -96.28600063869851   -6.44795e-05   1.99088e-04 DIIS/ADIIS
   @DF-UHF iter   8:   -96.28601053561303   -9.89691e-06   7.68026e-05 DIIS
   @DF-UHF iter   9:   -96.28601171693501   -1.18132e-06   1.38134e-05 DIIS
   @DF-UHF iter  10:   -96.28601179653728   -7.96023e-08   1.97741e-06 DIIS
   @DF-UHF iter  11:   -96.28601179760491   -1.06763e-09   6.44864e-07 DIIS
   @DF-UHF iter  12:   -96.28601179769777   -9.28537e-11   1.32115e-07 DIIS
   @DF-UHF iter  13:   -96.28601179769981   -2.04636e-12   2.55474e-08 DIIS
   @DF-UHF iter  14:   -96.28601179770003   -2.13163e-13   9.46930e-09 DIIS
   @DF-UHF iter  15:   -96.28601179770001    1.42109e-14   5.54562e-10 DIIS
   @DF-UHF iter  16:   -96.28601179770003   -1.42109e-14   1.20753e-10 DIIS
   @DF-UHF iter  17:   -96.28601179770001    1.42109e-14   2.33549e-11 DIIS
   @DF-UHF iter  18:   -96.28601179770004   -2.84217e-14   5.82258e-12 DIIS
   @DF-UHF iter  19:   -96.28601179769998    5.68434e-14   1.67516e-12 DIIS
   @DF-UHF iter  20:   -96.28601179770001   -2.84217e-14   6.15328e-13 DIIS
  Energy and wave function converged.


  ==> Post-Iterations <==

   @Spin Contamination Metric:   6.239561645E-03
   @S^2 Expected:                7.500000000E-01
   @S^2 Observed:                7.562395616E-01
   @S   Expected:                5.000000000E-01
   @S   Observed:                5.000000000E-01

    Orbital Energies [Eh]
    ---------------------

    Alpha Occupied:                                                       

       1A1   -21.109639     2A1    -1.890127     3A1    -1.432442  
       1B2    -1.220222     1B1    -1.114590     4A1    -1.055567  
       5A1    -0.759787     2B2    -0.754351     2B1    -0.753820  

    Alpha Virtual:                                                        

       6A1    -0.131266     3B2    -0.038407     3B1     0.403320  
       7A1     0.463399     4B2     0.601511     8A1     0.667448  
       5B2     0.760717     4B1     0.785613     6B2     0.852440  
       9A1     0.867343    10A1     1.253354    11A1     5.230484  

    Beta Occupied:                                                        

       1A1   -21.062856     2A1    -1.725081     3A1    -1.432486  
       1B2    -1.178521     4A1    -0.993217     5A1    -0.759779  
       2B2    -0.754367     1B1    -0.753825  

    Beta Virtual:                                                         

       2B1    -0.311957     6A1    -0.115851     3B2    -0.027560  
       7A1     0.483523     3B1     0.577499     4B2     0.612537  
       8A1     0.672290     5B2     0.762053     4B1     0.785936  
       6B2     0.857718     9A1     0.868516    10A1     1.303711  
      11A1     5.230502  

    Final Occupation by Irrep:
             A1    A2    B1    B2 
    DOCC [     5,    0,    1,    2 ]
    SOCC [     0,    0,    1,    0 ]

  @DF-UHF Final Energy:   -96.28601179770001

   => Energetics <=

    Nuclear Repulsion Energy =             20.9954687207938910
    One-Electron Energy =                -175.8122834265514030
    Two-Electron Energy =                  58.5308029080574954
    Total Energy =                        -96.2860117977000129

  UHF NO Occupations:
  HONO-2 :    2 B2 1.9987757
  HONO-1 :    5 A1 1.9984591
  HONO-0 :    2 B1 1.0000000
  LUNO+0 :    6 A1 0.0015409
  LUNO+1 :    3 B2 0.0012243
  LUNO+2 :    7 A1 0.0003559
  LUNO+3 :    8 A1 0.0000002


Computation Completed


Properties will be evaluated at   0.000000,   0.000000,   0.000000 [a0]

Properties computed using the SCF density matrix


 Multipole Moments:

 ------------------------------------------------------------------------------------
     Multipole            Electronic (a.u.)      Nuclear  (a.u.)        Total (a.u.)
 ------------------------------------------------------------------------------------

 L = 1.  Multiply by 2.5417464519 to convert [e a0] to [Debye]
 Dipole X            :          0.0000000            0.0000000            0.0000000
 Dipole Y            :          0.0000000            0.0000000            0.0000000
 Dipole Z            :         25.0154229          -28.4863652           -3.4709423
 Magnitude           :                                                    3.4709423

 ------------------------------------------------------------------------------------

*** tstop() called on armada.lan at Sat Apr 30 20:42:44 2022
Module time:
	user time   =       0.23 seconds =       0.00 minutes
	system time =       0.02 seconds =       0.00 minutes
	total time  =          0 seconds =       0.00 minutes
Total time:
	user time   =       1.85 seconds =       0.03 minutes
	system time =       0.09 seconds =       0.00 minutes
	total time  =          2 seconds =       0.03 minutes

  //>>>>>>>>>>>>>>>>>>>>>>>>>>>>>>>>>>>//
  //    Loading displacement 2 of 7    //
  //<<<<<<<<<<<<<<<<<<<<<<<<<<<<<<<<<<<//

Scratch directory: /tmp/andysim/

*** tstart() called on armada.lan
*** at Sat Apr 30 20:42:44 2022

   => Loading Basis Set <=

    Name: LANL2DZ
    Role: ORBITAL
    Keyword: BASIS
    atoms 1   entry AR         line   286 (ECP: line  1702) file /Users/andysim/programming/psi4/obj_opt/stage/share/psi4/basis/lanl2dz.gbs 
    atoms 2   entry O          line   136 file /Users/andysim/programming/psi4/obj_opt/stage/share/psi4/basis/lanl2dz.gbs 
    atoms 3-4 entry H          line    19 file /Users/andysim/programming/psi4/obj_opt/stage/share/psi4/basis/lanl2dz.gbs 

    !!!  WARNING: ECP capability is in beta. Please check occupations closely.  !!!


         ---------------------------------------------------------
                                   SCF
               by Justin Turney, Rob Parrish, Andy Simmonett
                          and Daniel G. A. Smith
                              UHF Reference
                        1 Threads,    500 MiB Core
         ---------------------------------------------------------

  ==> Geometry <==

    Molecular point group: c2v
    Full point group: C2v

    Geometry (in Angstrom), charge = 1, multiplicity = 2:

       Center              X                  Y                   Z               Mass       
    ------------   -----------------  -----------------  -----------------  -----------------
         AR           0.000000000000     0.000000000000     1.093104862717    39.962383123700
         O            0.000000000000     0.000000000000    -2.481098241875    15.994914619570
         H            0.000000000000    -0.854670041110    -1.983539130735     1.007825032230
         H           -0.000000000000     0.854670041110    -1.983539130735     1.007825032230

  Running in c2v symmetry.

  Rotational constants: A =     11.44944  B =      0.10936  C =      0.10833 [cm^-1]
  Rotational constants: A = 343245.69650  B =   3278.63994  C =   3247.61909 [MHz]
  Nuclear repulsion =   20.998059731159227

  Charge       = 1
  Multiplicity = 2
  Electrons    = 17
  Nalpha       = 9
  Nbeta        = 8

  ==> Algorithm <==

  SCF Algorithm Type is DF.
  DIIS enabled.
  MOM disabled.
  Fractional occupation disabled.
  Guess Type is SAD.
  Energy threshold   = 1.00e-08
  Density threshold  = 1.00e-12
  Integral threshold = 1.00e-12

  ==> Primary Basis <==

  Basis Set: LANL2DZ
    Blend: LANL2DZ
    Number of shells: 13
    Number of basis functions: 21
    Number of Cartesian functions: 21
    Spherical Harmonics?: false
    Max angular momentum: 1

  Core potential: LANL2DZ
    Number of shells: 3
    Number of ECP primitives: 16
    Number of ECP core electrons: 10
    Max angular momentum: 2

   => Loading Basis Set <=

    Name: (LANL2DZ AUX)
    Role: JKFIT
    Keyword: DF_BASIS_SCF
    atoms 1   entry AR         line  1069 file /Users/andysim/programming/psi4/obj_opt/stage/share/psi4/basis/def2-universal-jkfit.gbs 
    atoms 2   entry O          line   318 file /Users/andysim/programming/psi4/obj_opt/stage/share/psi4/basis/def2-universal-jkfit.gbs 
    atoms 3-4 entry H          line    18 file /Users/andysim/programming/psi4/obj_opt/stage/share/psi4/basis/def2-universal-jkfit.gbs 

  ==> Integral Setup <==

  DFHelper Memory: AOs need 0.002 GiB; user supplied 0.366 GiB. Using in-core AOs.

  ==> MemDFJK: Density-Fitted J/K Matrices <==

    J tasked:                   Yes
    K tasked:                   Yes
    wK tasked:                   No
    OpenMP threads:               1
    Memory [MiB]:               375
    Algorithm:                 Core
    Schwarz Cutoff:           1E-12
    Mask sparsity (%):       0.9070
    Fitting Condition:        1E-10

   => Auxiliary Basis Set <=

  Basis Set: (LANL2DZ AUX)
    Blend: DEF2-UNIVERSAL-JKFIT
    Number of shells: 75
    Number of basis functions: 288
    Number of Cartesian functions: 288
    Spherical Harmonics?: false
    Max angular momentum: 4

  Minimum eigenvalue in the overlap matrix is 6.1548290394E-02.
  Reciprocal condition number of the overlap matrix is 2.0648230850E-02.
    Using symmetric orthogonalization.

  ==> Pre-Iterations <==

  SCF Guess: Superposition of Atomic Densities via on-the-fly atomic UHF (no occupation information).

   -------------------------
    Irrep   Nso     Nmo    
   -------------------------
     A1        11      11 
     A2         0       0 
     B1         4       4 
     B2         6       6 
   -------------------------
    Total      21      21
   -------------------------

  ==> Iterations <==

                           Total Energy        Delta E     RMS |[F,P]|

   @DF-UHF iter SAD:   -94.03684475393283   -9.40368e+01   0.00000e+00 
   @DF-UHF iter   1:   -96.04848704520154   -2.01164e+00   2.87812e-02 DIIS/ADIIS
   @DF-UHF iter   2:   -96.09840434444719   -4.99173e-02   4.35867e-02 DIIS/ADIIS
   @DF-UHF iter   3:   -96.23271835191566   -1.34314e-01   1.21487e-02 DIIS/ADIIS
   @DF-UHF iter   4:   -96.26747591064492   -3.47576e-02   1.02288e-02 DIIS/ADIIS
   @DF-UHF iter   5:   -96.28571120129905   -1.82353e-02   1.45006e-03 DIIS/ADIIS
   @DF-UHF iter   6:   -96.28593514399755   -2.23943e-04   5.56125e-04 DIIS/ADIIS
   @DF-UHF iter   7:   -96.28600206771317   -6.69237e-05   1.72997e-04 DIIS/ADIIS
   @DF-UHF iter   8:   -96.28601159899570   -9.53128e-06   5.48499e-05 DIIS
   @DF-UHF iter   9:   -96.28601202702073   -4.28025e-07   1.21102e-05 DIIS
   @DF-UHF iter  10:   -96.28601207594994   -4.89292e-08   1.86494e-06 DIIS
   @DF-UHF iter  11:   -96.28601207719220   -1.24226e-09   5.09231e-07 DIIS
   @DF-UHF iter  12:   -96.28601207723300   -4.07994e-11   1.26737e-07 DIIS
   @DF-UHF iter  13:   -96.28601207723472   -1.71951e-12   4.21196e-08 DIIS
   @DF-UHF iter  14:   -96.28601207723497   -2.55795e-13   1.62499e-08 DIIS
   @DF-UHF iter  15:   -96.28601207723499   -1.42109e-14   6.02780e-10 DIIS
   @DF-UHF iter  16:   -96.28601207723500   -1.42109e-14   1.41506e-10 DIIS
   @DF-UHF iter  17:   -96.28601207723501   -1.42109e-14   2.60319e-11 DIIS
   @DF-UHF iter  18:   -96.28601207723501    0.00000e+00   7.72506e-12 DIIS
   @DF-UHF iter  19:   -96.28601207723499    2.84217e-14   2.85944e-12 DIIS
   @DF-UHF iter  20:   -96.28601207723493    5.68434e-14   8.22663e-13 DIIS
  Energy and wave function converged.


  ==> Post-Iterations <==

   @Spin Contamination Metric:   6.239527394E-03
   @S^2 Expected:                7.500000000E-01
   @S^2 Observed:                7.562395274E-01
   @S   Expected:                5.000000000E-01
   @S   Observed:                5.000000000E-01

    Orbital Energies [Eh]
    ---------------------

    Alpha Occupied:                                                       

       1A1   -21.109635     2A1    -1.890124     3A1    -1.432484  
       1B2    -1.220219     1B1    -1.114587     4A1    -1.055565  
       5A1    -0.759829     2B2    -0.754390     2B1    -0.753859  

    Alpha Virtual:                                                        

       6A1    -0.131259     3B2    -0.038406     3B1     0.403321  
       7A1     0.463384     4B2     0.601511     8A1     0.667430  
       5B2     0.760671     4B1     0.785578     6B2     0.852473  
       9A1     0.867423    10A1     1.253354    11A1     5.230600  

    Beta Occupied:                                                        

       1A1   -21.062852     2A1    -1.725078     3A1    -1.432527  
       1B2    -1.178518     4A1    -0.993215     5A1    -0.759821  
       2B2    -0.754406     1B1    -0.753864  

    Beta Virtual:                                                         

       2B1    -0.311955     6A1    -0.115844     3B2    -0.027558  
       7A1     0.483505     3B1     0.577500     4B2     0.612537  
       8A1     0.672274     5B2     0.762006     4B1     0.785903  
       6B2     0.857753     9A1     0.868597    10A1     1.303712  
      11A1     5.230618  

    Final Occupation by Irrep:
             A1    A2    B1    B2 
    DOCC [     5,    0,    1,    2 ]
    SOCC [     0,    0,    1,    0 ]

  @DF-UHF Final Energy:   -96.28601207723493

   => Energetics <=

    Nuclear Repulsion Energy =             20.9980597311592270
    One-Electron Energy =                -175.8171703237154304
    Two-Electron Energy =                  58.5330985153212708
    Total Energy =                        -96.2860120772349291

  UHF NO Occupations:
  HONO-2 :    2 B2 1.9987757
  HONO-1 :    5 A1 1.9984591
  HONO-0 :    2 B1 1.0000000
  LUNO+0 :    6 A1 0.0015409
  LUNO+1 :    3 B2 0.0012243
  LUNO+2 :    7 A1 0.0003559
  LUNO+3 :    8 A1 0.0000002


Computation Completed


Properties will be evaluated at   0.000000,   0.000000,   0.000000 [a0]

Properties computed using the SCF density matrix


 Multipole Moments:

 ------------------------------------------------------------------------------------
     Multipole            Electronic (a.u.)      Nuclear  (a.u.)        Total (a.u.)
 ------------------------------------------------------------------------------------

 L = 1.  Multiply by 2.5417464519 to convert [e a0] to [Debye]
 Dipole X            :          0.0000000            0.0000000            0.0000000
 Dipole Y            :          0.0000000            0.0000000            0.0000000
 Dipole Z            :         25.0102035          -28.4801102           -3.4699067
 Magnitude           :                                                    3.4699067

 ------------------------------------------------------------------------------------

*** tstop() called on armada.lan at Sat Apr 30 20:42:44 2022
Module time:
	user time   =       0.23 seconds =       0.00 minutes
	system time =       0.01 seconds =       0.00 minutes
	total time  =          0 seconds =       0.00 minutes
Total time:
	user time   =       2.09 seconds =       0.03 minutes
	system time =       0.10 seconds =       0.00 minutes
	total time  =          2 seconds =       0.03 minutes

  //>>>>>>>>>>>>>>>>>>>>>>>>>>>>>>>>>>>//
  //    Loading displacement 3 of 7    //
  //<<<<<<<<<<<<<<<<<<<<<<<<<<<<<<<<<<<//

Scratch directory: /tmp/andysim/

*** tstart() called on armada.lan
*** at Sat Apr 30 20:42:44 2022

   => Loading Basis Set <=

    Name: LANL2DZ
    Role: ORBITAL
    Keyword: BASIS
    atoms 1   entry AR         line   286 (ECP: line  1702) file /Users/andysim/programming/psi4/obj_opt/stage/share/psi4/basis/lanl2dz.gbs 
    atoms 2   entry O          line   136 file /Users/andysim/programming/psi4/obj_opt/stage/share/psi4/basis/lanl2dz.gbs 
    atoms 3-4 entry H          line    19 file /Users/andysim/programming/psi4/obj_opt/stage/share/psi4/basis/lanl2dz.gbs 

    !!!  WARNING: ECP capability is in beta. Please check occupations closely.  !!!


         ---------------------------------------------------------
                                   SCF
               by Justin Turney, Rob Parrish, Andy Simmonett
                          and Daniel G. A. Smith
                              UHF Reference
                        1 Threads,    500 MiB Core
         ---------------------------------------------------------

  ==> Geometry <==

    Molecular point group: c2v
    Full point group: C2v

    Geometry (in Angstrom), charge = 1, multiplicity = 2:

       Center              X                  Y                   Z               Mass       
    ------------   -----------------  -----------------  -----------------  -----------------
         AR           0.000000000000     0.000000000000     1.093571443036    39.962383123700
         O            0.000000000000     0.000000000000    -2.482133504334    15.994914619570
         H            0.000000000000    -0.854670041110    -1.984574393194     1.007825032230
         H           -0.000000000000     0.854670041110    -1.984574393194     1.007825032230

  Running in c2v symmetry.

  Rotational constants: A =     11.44944  B =      0.10927  C =      0.10824 [cm^-1]
  Rotational constants: A = 343245.69650  B =   3275.85086  C =   3244.88251 [MHz]
  Nuclear repulsion =   20.992878807995115

  Charge       = 1
  Multiplicity = 2
  Electrons    = 17
  Nalpha       = 9
  Nbeta        = 8

  ==> Algorithm <==

  SCF Algorithm Type is DF.
  DIIS enabled.
  MOM disabled.
  Fractional occupation disabled.
  Guess Type is SAD.
  Energy threshold   = 1.00e-08
  Density threshold  = 1.00e-12
  Integral threshold = 1.00e-12

  ==> Primary Basis <==

  Basis Set: LANL2DZ
    Blend: LANL2DZ
    Number of shells: 13
    Number of basis functions: 21
    Number of Cartesian functions: 21
    Spherical Harmonics?: false
    Max angular momentum: 1

  Core potential: LANL2DZ
    Number of shells: 3
    Number of ECP primitives: 16
    Number of ECP core electrons: 10
    Max angular momentum: 2

   => Loading Basis Set <=

    Name: (LANL2DZ AUX)
    Role: JKFIT
    Keyword: DF_BASIS_SCF
    atoms 1   entry AR         line  1069 file /Users/andysim/programming/psi4/obj_opt/stage/share/psi4/basis/def2-universal-jkfit.gbs 
    atoms 2   entry O          line   318 file /Users/andysim/programming/psi4/obj_opt/stage/share/psi4/basis/def2-universal-jkfit.gbs 
    atoms 3-4 entry H          line    18 file /Users/andysim/programming/psi4/obj_opt/stage/share/psi4/basis/def2-universal-jkfit.gbs 

  ==> Integral Setup <==

  DFHelper Memory: AOs need 0.002 GiB; user supplied 0.366 GiB. Using in-core AOs.

  ==> MemDFJK: Density-Fitted J/K Matrices <==

    J tasked:                   Yes
    K tasked:                   Yes
    wK tasked:                   No
    OpenMP threads:               1
    Memory [MiB]:               375
    Algorithm:                 Core
    Schwarz Cutoff:           1E-12
    Mask sparsity (%):       0.9070
    Fitting Condition:        1E-10

   => Auxiliary Basis Set <=

  Basis Set: (LANL2DZ AUX)
    Blend: DEF2-UNIVERSAL-JKFIT
    Number of shells: 75
    Number of basis functions: 288
    Number of Cartesian functions: 288
    Spherical Harmonics?: false
    Max angular momentum: 4

  Minimum eigenvalue in the overlap matrix is 6.1551550497E-02.
  Reciprocal condition number of the overlap matrix is 2.0649501204E-02.
    Using symmetric orthogonalization.

  ==> Pre-Iterations <==

  SCF Guess: Superposition of Atomic Densities via on-the-fly atomic UHF (no occupation information).

   -------------------------
    Irrep   Nso     Nmo    
   -------------------------
     A1        11      11 
     A2         0       0 
     B1         4       4 
     B2         6       6 
   -------------------------
    Total      21      21
   -------------------------

  ==> Iterations <==

                           Total Energy        Delta E     RMS |[F,P]|

   @DF-UHF iter SAD:   -94.05415747297681   -9.40542e+01   0.00000e+00 
   @DF-UHF iter   1:   -96.23908695707874   -2.18493e+00   2.09129e-02 DIIS/ADIIS
   @DF-UHF iter   2:   -96.28195416721525   -4.28672e-02   5.71399e-03 DIIS/ADIIS
   @DF-UHF iter   3:   -96.28529110186886   -3.33693e-03   2.03973e-03 DIIS/ADIIS
   @DF-UHF iter   4:   -96.28584917516358   -5.58073e-04   7.47318e-04 DIIS/ADIIS
   @DF-UHF iter   5:   -96.28597339159262   -1.24216e-04   3.44494e-04 DIIS/ADIIS
   @DF-UHF iter   6:   -96.28600783820698   -3.44466e-05   1.03957e-04 DIIS/ADIIS
   @DF-UHF iter   7:   -96.28601143498625   -3.59678e-06   1.73947e-05 DIIS
   @DF-UHF iter   8:   -96.28601151116570   -7.61794e-08   3.75874e-06 DIIS
   @DF-UHF iter   9:   -96.28601151481972   -3.65402e-09   6.47204e-07 DIIS
   @DF-UHF iter  10:   -96.28601151491067   -9.09495e-11   1.07367e-07 DIIS
   @DF-UHF iter  11:   -96.28601151491355   -2.88480e-12   1.90573e-08 DIIS
   @DF-UHF iter  12:   -96.28601151491367   -1.13687e-13   4.70894e-09 DIIS
   @DF-UHF iter  13:   -96.28601151491367    0.00000e+00   7.01207e-10 DIIS
   @DF-UHF iter  14:   -96.28601151491367    0.00000e+00   1.08516e-10 DIIS
   @DF-UHF iter  15:   -96.28601151491361    5.68434e-14   1.73177e-11 DIIS
   @DF-UHF iter  16:   -96.28601151491367   -5.68434e-14   5.50478e-12 DIIS
   @DF-UHF iter  17:   -96.28601151491364    2.84217e-14   9.60182e-13 DIIS
  Energy and wave function converged.


  ==> Post-Iterations <==

   @Spin Contamination Metric:   6.239595825E-03
   @S^2 Expected:                7.500000000E-01
   @S^2 Observed:                7.562395958E-01
   @S   Expected:                5.000000000E-01
   @S   Observed:                5.000000000E-01

    Orbital Energies [Eh]
    ---------------------

    Alpha Occupied:                                                       

       1A1   -21.109643     2A1    -1.890130     3A1    -1.432401  
       1B2    -1.220225     1B1    -1.114594     4A1    -1.055569  
       5A1    -0.759745     2B2    -0.754311     2B1    -0.753781  

    Alpha Virtual:                                                        

       6A1    -0.131273     3B2    -0.038409     3B1     0.403319  
       7A1     0.463415     4B2     0.601511     8A1     0.667466  
       5B2     0.760763     4B1     0.785648     6B2     0.852406  
       9A1     0.867264    10A1     1.253353    11A1     5.230368  

    Beta Occupied:                                                        

       1A1   -21.062860     2A1    -1.725084     3A1    -1.432445  
       1B2    -1.178524     4A1    -0.993218     5A1    -0.759738  
       2B2    -0.754328     1B1    -0.753786  

    Beta Virtual:                                                         

       2B1    -0.311960     6A1    -0.115859     3B2    -0.027562  
       7A1     0.483541     3B1     0.577499     4B2     0.612536  
       8A1     0.672307     5B2     0.762100     4B1     0.785970  
       6B2     0.857684     9A1     0.868435    10A1     1.303711  
      11A1     5.230386  

    Final Occupation by Irrep:
             A1    A2    B1    B2 
    DOCC [     5,    0,    1,    2 ]
    SOCC [     0,    0,    1,    0 ]

  @DF-UHF Final Energy:   -96.28601151491364

   => Energetics <=

    Nuclear Repulsion Energy =             20.9928788079951154
    One-Electron Energy =                -175.8073986201392813
    Two-Electron Energy =                  58.5285082972305375
    Total Energy =                        -96.2860115149136391

  UHF NO Occupations:
  HONO-2 :    2 B2 1.9987757
  HONO-1 :    5 A1 1.9984590
  HONO-0 :    2 B1 1.0000000
  LUNO+0 :    6 A1 0.0015410
  LUNO+1 :    3 B2 0.0012243
  LUNO+2 :    7 A1 0.0003559
  LUNO+3 :    8 A1 0.0000002


Computation Completed


Properties will be evaluated at   0.000000,   0.000000,   0.000000 [a0]

Properties computed using the SCF density matrix


 Multipole Moments:

 ------------------------------------------------------------------------------------
     Multipole            Electronic (a.u.)      Nuclear  (a.u.)        Total (a.u.)
 ------------------------------------------------------------------------------------

 L = 1.  Multiply by 2.5417464519 to convert [e a0] to [Debye]
 Dipole X            :          0.0000000            0.0000000            0.0000000
 Dipole Y            :          0.0000000            0.0000000            0.0000000
 Dipole Z            :         25.0206424          -28.4926202           -3.4719778
 Magnitude           :                                                    3.4719778

 ------------------------------------------------------------------------------------

*** tstop() called on armada.lan at Sat Apr 30 20:42:45 2022
Module time:
	user time   =       0.22 seconds =       0.00 minutes
	system time =       0.01 seconds =       0.00 minutes
	total time  =          1 seconds =       0.02 minutes
Total time:
	user time   =       2.32 seconds =       0.04 minutes
	system time =       0.11 seconds =       0.00 minutes
	total time  =          3 seconds =       0.05 minutes

  //>>>>>>>>>>>>>>>>>>>>>>>>>>>>>>>>>>>//
  //    Loading displacement 4 of 7    //
  //<<<<<<<<<<<<<<<<<<<<<<<<<<<<<<<<<<<//

Scratch directory: /tmp/andysim/

*** tstart() called on armada.lan
*** at Sat Apr 30 20:42:45 2022

   => Loading Basis Set <=

    Name: LANL2DZ
    Role: ORBITAL
    Keyword: BASIS
    atoms 1   entry AR         line   286 (ECP: line  1702) file /Users/andysim/programming/psi4/obj_opt/stage/share/psi4/basis/lanl2dz.gbs 
    atoms 2   entry O          line   136 file /Users/andysim/programming/psi4/obj_opt/stage/share/psi4/basis/lanl2dz.gbs 
    atoms 3-4 entry H          line    19 file /Users/andysim/programming/psi4/obj_opt/stage/share/psi4/basis/lanl2dz.gbs 

    !!!  WARNING: ECP capability is in beta. Please check occupations closely.  !!!


         ---------------------------------------------------------
                                   SCF
               by Justin Turney, Rob Parrish, Andy Simmonett
                          and Daniel G. A. Smith
                              UHF Reference
                        1 Threads,    500 MiB Core
         ---------------------------------------------------------

  ==> Geometry <==

    Molecular point group: c2v
    Full point group: C2v

    Geometry (in Angstrom), charge = 1, multiplicity = 2:

       Center              X                  Y                   Z               Mass       
    ------------   -----------------  -----------------  -----------------  -----------------
         AR           0.000000000000     0.000000000000     1.093338152877    39.962383123700
         O            0.000000000000     0.000000000000    -2.481837194845    15.994914619570
         H            0.000000000000    -0.854670041110    -1.982300493646     1.007825032230
         H           -0.000000000000     0.854670041110    -1.982300493646     1.007825032230

  Running in c2v symmetry.

  Rotational constants: A =     11.44944  B =      0.10931  C =      0.10828 [cm^-1]
  Rotational constants: A = 343245.69650  B =   3277.16994  C =   3246.17677 [MHz]
  Nuclear repulsion =   20.987670018989260

  Charge       = 1
  Multiplicity = 2
  Electrons    = 17
  Nalpha       = 9
  Nbeta        = 8

  ==> Algorithm <==

  SCF Algorithm Type is DF.
  DIIS enabled.
  MOM disabled.
  Fractional occupation disabled.
  Guess Type is SAD.
  Energy threshold   = 1.00e-08
  Density threshold  = 1.00e-12
  Integral threshold = 1.00e-12

  ==> Primary Basis <==

  Basis Set: LANL2DZ
    Blend: LANL2DZ
    Number of shells: 13
    Number of basis functions: 21
    Number of Cartesian functions: 21
    Spherical Harmonics?: false
    Max angular momentum: 1

  Core potential: LANL2DZ
    Number of shells: 3
    Number of ECP primitives: 16
    Number of ECP core electrons: 10
    Max angular momentum: 2

   => Loading Basis Set <=

    Name: (LANL2DZ AUX)
    Role: JKFIT
    Keyword: DF_BASIS_SCF
    atoms 1   entry AR         line  1069 file /Users/andysim/programming/psi4/obj_opt/stage/share/psi4/basis/def2-universal-jkfit.gbs 
    atoms 2   entry O          line   318 file /Users/andysim/programming/psi4/obj_opt/stage/share/psi4/basis/def2-universal-jkfit.gbs 
    atoms 3-4 entry H          line    18 file /Users/andysim/programming/psi4/obj_opt/stage/share/psi4/basis/def2-universal-jkfit.gbs 

  ==> Integral Setup <==

  DFHelper Memory: AOs need 0.002 GiB; user supplied 0.366 GiB. Using in-core AOs.

  ==> MemDFJK: Density-Fitted J/K Matrices <==

    J tasked:                   Yes
    K tasked:                   Yes
    wK tasked:                   No
    OpenMP threads:               1
    Memory [MiB]:               375
    Algorithm:                 Core
    Schwarz Cutoff:           1E-12
    Mask sparsity (%):       0.9070
    Fitting Condition:        1E-10

   => Auxiliary Basis Set <=

  Basis Set: (LANL2DZ AUX)
    Blend: DEF2-UNIVERSAL-JKFIT
    Number of shells: 75
    Number of basis functions: 288
    Number of Cartesian functions: 288
    Spherical Harmonics?: false
    Max angular momentum: 4

  Minimum eigenvalue in the overlap matrix is 6.1595818051E-02.
  Reciprocal condition number of the overlap matrix is 2.0669325065E-02.
    Using symmetric orthogonalization.

  ==> Pre-Iterations <==

  SCF Guess: Superposition of Atomic Densities via on-the-fly atomic UHF (no occupation information).

   -------------------------
    Irrep   Nso     Nmo    
   -------------------------
     A1        11      11 
     A2         0       0 
     B1         4       4 
     B2         6       6 
   -------------------------
    Total      21      21
   -------------------------

  ==> Iterations <==

                           Total Energy        Delta E     RMS |[F,P]|

   @DF-UHF iter SAD:   -94.11270340399413   -9.41127e+01   0.00000e+00 
   @DF-UHF iter   1:   -96.02911980390876   -1.91642e+00   3.15691e-02 DIIS/ADIIS
   @DF-UHF iter   2:   -96.05874986360644   -2.96301e-02   5.09835e-02 DIIS/ADIIS
   @DF-UHF iter   3:   -96.23350418398003   -1.74754e-01   1.52000e-02 DIIS/ADIIS
   @DF-UHF iter   4:   -96.26900510560300   -3.55009e-02   1.04650e-02 DIIS/ADIIS
   @DF-UHF iter   5:   -96.28576014144923   -1.67550e-02   1.03276e-03 DIIS/ADIIS
   @DF-UHF iter   6:   -96.28593372301155   -1.73582e-04   5.07162e-04 DIIS/ADIIS
   @DF-UHF iter   7:   -96.28599872748904   -6.50045e-05   2.02533e-04 DIIS/ADIIS
   @DF-UHF iter   8:   -96.28600890847756   -1.01810e-05   7.87568e-05 DIIS
   @DF-UHF iter   9:   -96.28601012639827   -1.21792e-06   1.43494e-05 DIIS
   @DF-UHF iter  10:   -96.28601021245089   -8.60526e-08   1.99605e-06 DIIS
   @DF-UHF iter  11:   -96.28601021352152   -1.07063e-09   6.46864e-07 DIIS
   @DF-UHF iter  12:   -96.28601021361803   -9.65059e-11   1.35466e-07 DIIS
   @DF-UHF iter  13:   -96.28601021362019   -2.16005e-12   2.63853e-08 DIIS
   @DF-UHF iter  14:   -96.28601021362034   -1.56319e-13   1.01612e-08 DIIS
   @DF-UHF iter  15:   -96.28601021362033    1.42109e-14   5.73687e-10 DIIS
   @DF-UHF iter  16:   -96.28601021362037   -4.26326e-14   1.24388e-10 DIIS
   @DF-UHF iter  17:   -96.28601021362041   -4.26326e-14   2.35313e-11 DIIS
   @DF-UHF iter  18:   -96.28601021362037    4.26326e-14   6.12727e-12 DIIS
   @DF-UHF iter  19:   -96.28601021362039   -1.42109e-14   1.72494e-12 DIIS
   @DF-UHF iter  20:   -96.28601021362033    5.68434e-14   6.82127e-13 DIIS
  Energy and wave function converged.


  ==> Post-Iterations <==

   @Spin Contamination Metric:   6.268045271E-03
   @S^2 Expected:                7.500000000E-01
   @S^2 Observed:                7.562680453E-01
   @S   Expected:                5.000000000E-01
   @S   Observed:                5.000000000E-01

    Orbital Energies [Eh]
    ---------------------

    Alpha Occupied:                                                       

       1A1   -21.109701     2A1    -1.889729     3A1    -1.432545  
       1B2    -1.219246     1B1    -1.114436     4A1    -1.055554  
       5A1    -0.759891     2B2    -0.754449     2B1    -0.753916  

    Alpha Virtual:                                                        

       6A1    -0.131573     3B2    -0.038902     3B1     0.403399  
       7A1     0.463772     4B2     0.601141     8A1     0.667469  
       5B2     0.760059     4B1     0.785522     6B2     0.851724  
       9A1     0.867652    10A1     1.253566    11A1     5.230701  

    Beta Occupied:                                                        

       1A1   -21.062906     2A1    -1.724619     3A1    -1.432589  
       1B2    -1.177484     4A1    -0.993193     5A1    -0.759884  
       2B2    -0.754465     1B1    -0.753922  

    Beta Virtual:                                                         

       2B1    -0.311806     6A1    -0.116163     3B2    -0.028036  
       7A1     0.483936     3B1     0.577586     4B2     0.612163  
       8A1     0.672246     5B2     0.761428     4B1     0.785846  
       6B2     0.856943     9A1     0.868805    10A1     1.303938  
      11A1     5.230718  

    Final Occupation by Irrep:
             A1    A2    B1    B2 
    DOCC [     5,    0,    1,    2 ]
    SOCC [     0,    0,    1,    0 ]

  @DF-UHF Final Energy:   -96.28601021362033

   => Energetics <=

    Nuclear Repulsion Energy =             20.9876700189892595
    One-Electron Energy =                -175.7988321096312347
    Two-Electron Energy =                  58.5251518770216421
    Total Energy =                        -96.2860102136203295

  UHF NO Occupations:
  HONO-2 :    2 B2 1.9987658
  HONO-1 :    5 A1 1.9984551
  HONO-0 :    2 B1 1.0000000
  LUNO+0 :    6 A1 0.0015449
  LUNO+1 :    3 B2 0.0012342
  LUNO+2 :    7 A1 0.0003564
  LUNO+3 :    8 A1 0.0000002


Computation Completed


Properties will be evaluated at   0.000000,   0.000000,   0.000000 [a0]

Properties computed using the SCF density matrix


 Multipole Moments:

 ------------------------------------------------------------------------------------
     Multipole            Electronic (a.u.)      Nuclear  (a.u.)        Total (a.u.)
 ------------------------------------------------------------------------------------

 L = 1.  Multiply by 2.5417464519 to convert [e a0] to [Debye]
 Dipole X            :          0.0000000            0.0000000            0.0000000
 Dipole Y            :          0.0000000            0.0000000            0.0000000
 Dipole Z            :         25.0155954          -28.4830734           -3.4674780
 Magnitude           :                                                    3.4674780

 ------------------------------------------------------------------------------------

*** tstop() called on armada.lan at Sat Apr 30 20:42:45 2022
Module time:
	user time   =       0.23 seconds =       0.00 minutes
	system time =       0.01 seconds =       0.00 minutes
	total time  =          0 seconds =       0.00 minutes
Total time:
	user time   =       2.56 seconds =       0.04 minutes
	system time =       0.13 seconds =       0.00 minutes
	total time  =          3 seconds =       0.05 minutes

  //>>>>>>>>>>>>>>>>>>>>>>>>>>>>>>>>>>>//
  //    Loading displacement 5 of 7    //
  //<<<<<<<<<<<<<<<<<<<<<<<<<<<<<<<<<<<//

Scratch directory: /tmp/andysim/

*** tstart() called on armada.lan
*** at Sat Apr 30 20:42:45 2022

   => Loading Basis Set <=

    Name: LANL2DZ
    Role: ORBITAL
    Keyword: BASIS
    atoms 1   entry AR         line   286 (ECP: line  1702) file /Users/andysim/programming/psi4/obj_opt/stage/share/psi4/basis/lanl2dz.gbs 
    atoms 2   entry O          line   136 file /Users/andysim/programming/psi4/obj_opt/stage/share/psi4/basis/lanl2dz.gbs 
    atoms 3-4 entry H          line    19 file /Users/andysim/programming/psi4/obj_opt/stage/share/psi4/basis/lanl2dz.gbs 

    !!!  WARNING: ECP capability is in beta. Please check occupations closely.  !!!


         ---------------------------------------------------------
                                   SCF
               by Justin Turney, Rob Parrish, Andy Simmonett
                          and Daniel G. A. Smith
                              UHF Reference
                        1 Threads,    500 MiB Core
         ---------------------------------------------------------

  ==> Geometry <==

    Molecular point group: c2v
    Full point group: C2v

    Geometry (in Angstrom), charge = 1, multiplicity = 2:

       Center              X                  Y                   Z               Mass       
    ------------   -----------------  -----------------  -----------------  -----------------
         AR           0.000000000000     0.000000000000     1.093338152877    39.962383123700
         O            0.000000000000     0.000000000000    -2.481394551363    15.994914619570
         H            0.000000000000    -0.854670041110    -1.985813030283     1.007825032230
         H           -0.000000000000     0.854670041110    -1.985813030283     1.007825032230

  Running in c2v symmetry.

  Rotational constants: A =     11.44944  B =      0.10932  C =      0.10829 [cm^-1]
  Rotational constants: A = 343245.69650  B =   3277.31967  C =   3246.32368 [MHz]
  Nuclear repulsion =   21.003260688591219

  Charge       = 1
  Multiplicity = 2
  Electrons    = 17
  Nalpha       = 9
  Nbeta        = 8

  ==> Algorithm <==

  SCF Algorithm Type is DF.
  DIIS enabled.
  MOM disabled.
  Fractional occupation disabled.
  Guess Type is SAD.
  Energy threshold   = 1.00e-08
  Density threshold  = 1.00e-12
  Integral threshold = 1.00e-12

  ==> Primary Basis <==

  Basis Set: LANL2DZ
    Blend: LANL2DZ
    Number of shells: 13
    Number of basis functions: 21
    Number of Cartesian functions: 21
    Spherical Harmonics?: false
    Max angular momentum: 1

  Core potential: LANL2DZ
    Number of shells: 3
    Number of ECP primitives: 16
    Number of ECP core electrons: 10
    Max angular momentum: 2

   => Loading Basis Set <=

    Name: (LANL2DZ AUX)
    Role: JKFIT
    Keyword: DF_BASIS_SCF
    atoms 1   entry AR         line  1069 file /Users/andysim/programming/psi4/obj_opt/stage/share/psi4/basis/def2-universal-jkfit.gbs 
    atoms 2   entry O          line   318 file /Users/andysim/programming/psi4/obj_opt/stage/share/psi4/basis/def2-universal-jkfit.gbs 
    atoms 3-4 entry H          line    18 file /Users/andysim/programming/psi4/obj_opt/stage/share/psi4/basis/def2-universal-jkfit.gbs 

  ==> Integral Setup <==

  DFHelper Memory: AOs need 0.002 GiB; user supplied 0.366 GiB. Using in-core AOs.

  ==> MemDFJK: Density-Fitted J/K Matrices <==

    J tasked:                   Yes
    K tasked:                   Yes
    wK tasked:                   No
    OpenMP threads:               1
    Memory [MiB]:               375
    Algorithm:                 Core
    Schwarz Cutoff:           1E-12
    Mask sparsity (%):       0.9070
    Fitting Condition:        1E-10

   => Auxiliary Basis Set <=

  Basis Set: (LANL2DZ AUX)
    Blend: DEF2-UNIVERSAL-JKFIT
    Number of shells: 75
    Number of basis functions: 288
    Number of Cartesian functions: 288
    Spherical Harmonics?: false
    Max angular momentum: 4

  Minimum eigenvalue in the overlap matrix is 6.1504426061E-02.
  Reciprocal condition number of the overlap matrix is 2.0628571927E-02.
    Using symmetric orthogonalization.

  ==> Pre-Iterations <==

  SCF Guess: Superposition of Atomic Densities via on-the-fly atomic UHF (no occupation information).

   -------------------------
    Irrep   Nso     Nmo    
   -------------------------
     A1        11      11 
     A2         0       0 
     B1         4       4 
     B2         6       6 
   -------------------------
    Total      21      21
   -------------------------

  ==> Iterations <==

                           Total Energy        Delta E     RMS |[F,P]|

   @DF-UHF iter SAD:   -94.11557058618610   -9.41156e+01   0.00000e+00 
   @DF-UHF iter   1:   -96.02881858226390   -1.91325e+00   3.16814e-02 DIIS/ADIIS
   @DF-UHF iter   2:   -96.05712711607970   -2.83085e-02   5.14170e-02 DIIS/ADIIS
   @DF-UHF iter   3:   -96.23499241688856   -1.77865e-01   1.53275e-02 DIIS/ADIIS
   @DF-UHF iter   4:   -96.26980814004565   -3.48157e-02   1.02888e-02 DIIS/ADIIS
   @DF-UHF iter   5:   -96.28575751511998   -1.59494e-02   1.02967e-03 DIIS/ADIIS
   @DF-UHF iter   6:   -96.28593415061360   -1.76635e-04   4.99530e-04 DIIS/ADIIS
   @DF-UHF iter   7:   -96.28599808874206   -6.39381e-05   1.95462e-04 DIIS/ADIIS
[...]
       6Ap    -0.759787     7Ap    -0.754351     2App   -0.753820  

    Alpha Virtual:                                                        

       8Ap    -0.131267     9Ap    -0.038408     3App    0.403320  
      10Ap     0.463400    11Ap     0.601512    12Ap     0.667448  
      13Ap     0.760717     4App    0.785613    14Ap     0.852435  
      15Ap     0.867347    16Ap     1.253353    17Ap     5.230486  

    Beta Occupied:                                                        

       1Ap   -21.062856     2Ap    -1.725080     3Ap    -1.432486  
       4Ap    -1.178520     5Ap    -0.993216     6Ap    -0.759779  
       7Ap    -0.754367     1App   -0.753825  

    Beta Virtual:                                                         

       2App   -0.311957     8Ap    -0.115852     9Ap    -0.027561  
      10Ap     0.483523     3App    0.577500    11Ap     0.612538  
      12Ap     0.672290    13Ap     0.762053     4App    0.785936  
      14Ap     0.857712    15Ap     0.868521    16Ap     1.303711  
      17Ap     5.230504  

    Final Occupation by Irrep:
             Ap   App 
    DOCC [     7,    1 ]
    SOCC [     0,    1 ]

  @DF-UHF Final Energy:   -96.28601180855446

   => Energetics <=

    Nuclear Repulsion Energy =             20.9954535354550629
    One-Electron Energy =                -175.8122597050466425
    Two-Electron Energy =                  58.5307943610371240
    Total Energy =                        -96.2860118085544627

  UHF NO Occupations:
  HONO-2 :    6 Ap 1.9987757
  HONO-1 :    7 Ap 1.9984590
  HONO-0 :    2App 1.0000000
  LUNO+0 :    8 Ap 0.0015410
  LUNO+1 :    9 Ap 0.0012243
  LUNO+2 :   10 Ap 0.0003559
  LUNO+3 :   11 Ap 0.0000002


Computation Completed


Properties will be evaluated at   0.000000,   0.000000,   0.000000 [a0]

Properties computed using the SCF density matrix


 Multipole Moments:

 ------------------------------------------------------------------------------------
     Multipole            Electronic (a.u.)      Nuclear  (a.u.)        Total (a.u.)
 ------------------------------------------------------------------------------------

 L = 1.  Multiply by 2.5417464519 to convert [e a0] to [Debye]
 Dipole X            :          0.0000000            0.0000000            0.0000000
 Dipole Y            :         -0.0000757            0.0022674            0.0021917
 Dipole Z            :         25.0154234          -28.4863652           -3.4709419
 Magnitude           :                                                    3.4709425

 ------------------------------------------------------------------------------------

*** tstop() called on armada.lan at Sat Apr 30 20:42:53 2022
Module time:
	user time   =       0.23 seconds =       0.00 minutes
	system time =       0.01 seconds =       0.00 minutes
	total time  =          0 seconds =       0.00 minutes
Total time:
	user time   =      10.44 seconds =       0.17 minutes
	system time =       0.60 seconds =       0.01 minutes
	total time  =         11 seconds =       0.18 minutes

*** tstart() called on armada.lan
*** at Sat Apr 30 20:42:53 2022


         ------------------------------------------------------------
                                   SCF GRAD                          
                          Rob Parrish, Justin Turney,                
                       Andy Simmonett, and Alex Sokolov              
         ------------------------------------------------------------

  ==> Geometry <==

    Molecular point group: cs
    Full point group: Cs

    Geometry (in Angstrom), charge = 1, multiplicity = 2:

       Center              X                  Y                   Z               Mass       
    ------------   -----------------  -----------------  -----------------  -----------------
         AR           0.000000000000    -0.000025877438     1.093338152877    39.962383123700
         O            0.000000000000    -0.000048379231    -2.481615873104    15.994914619570
         H            0.000000000000    -0.853773086936    -1.982432938540     1.007825032230
         H            0.000000000000     0.855566995284    -1.985680585388     1.007825032230

  Nuclear repulsion =   20.995453535455063

  ==> Basis Set <==

  Basis Set: LANL2DZ
    Blend: LANL2DZ
    Number of shells: 13
    Number of basis functions: 21
    Number of Cartesian functions: 21
    Spherical Harmonics?: false
    Max angular momentum: 1

  Core potential: LANL2DZ
    Number of shells: 3
    Number of ECP primitives: 16
    Number of ECP core electrons: 10
    Max angular momentum: 2

  ==> DFJKGrad: Density-Fitted SCF Gradients <==

    Gradient:                    1
    J tasked:                  Yes
    K tasked:                  Yes
    wK tasked:                  No
    OpenMP threads:              1
    Integrals threads:           1
    Memory [MiB]:              375
    Schwarz Cutoff:          1E-12
    Fitting Condition:       1E-10

   => Auxiliary Basis Set <=

  Basis Set: (LANL2DZ AUX)
    Blend: DEF2-UNIVERSAL-JKFIT
    Number of shells: 75
    Number of basis functions: 288
    Number of Cartesian functions: 288
    Spherical Harmonics?: false
    Max angular momentum: 4


  -Total Gradient:
     Atom            X                  Y                   Z
    ------   -----------------  -----------------  -----------------
       1        0.000000000000     0.000001679813     0.000198163983
       2        0.000000000000    -0.000000889367    -0.000002996469
       3        0.000000000000    -0.000026713178    -0.000100922201
       4        0.000000000000     0.000025922732    -0.000094245313


*** tstop() called on armada.lan at Sat Apr 30 20:42:53 2022
Module time:
	user time   =       0.05 seconds =       0.00 minutes
	system time =       0.01 seconds =       0.00 minutes
	total time  =          0 seconds =       0.00 minutes
Total time:
	user time   =      10.49 seconds =       0.17 minutes
	system time =       0.61 seconds =       0.01 minutes
	total time  =         11 seconds =       0.18 minutes

  //>>>>>>>>>>>>>>>>>>>>>>>>>>>>>>>>>>>//
  //   Loading displacement 10 of 10   //
  //<<<<<<<<<<<<<<<<<<<<<<<<<<<<<<<<<<<//

Scratch directory: /tmp/andysim/
gradient() will perform analytic gradient computation.

*** tstart() called on armada.lan
*** at Sat Apr 30 20:42:53 2022

   => Loading Basis Set <=

    Name: LANL2DZ
    Role: ORBITAL
    Keyword: BASIS
    atoms 1   entry AR         line   286 (ECP: line  1702) file /Users/andysim/programming/psi4/obj_opt/stage/share/psi4/basis/lanl2dz.gbs 
    atoms 2   entry O          line   136 file /Users/andysim/programming/psi4/obj_opt/stage/share/psi4/basis/lanl2dz.gbs 
    atoms 3-4 entry H          line    19 file /Users/andysim/programming/psi4/obj_opt/stage/share/psi4/basis/lanl2dz.gbs 

    !!!  WARNING: ECP capability is in beta. Please check occupations closely.  !!!


         ---------------------------------------------------------
                                   SCF
               by Justin Turney, Rob Parrish, Andy Simmonett
                          and Daniel G. A. Smith
                              UHF Reference
                        1 Threads,    500 MiB Core
         ---------------------------------------------------------

  ==> Geometry <==

    Molecular point group: cs
    Full point group: Cs

    Geometry (in Angstrom), charge = 1, multiplicity = 2:

       Center              X                  Y                   Z               Mass       
    ------------   -----------------  -----------------  -----------------  -----------------
         AR           0.000000000000    -0.000000000000     1.093338152877    39.962383123700
         O            0.000000000000    -0.000194038400    -2.481615873104    15.994914619570
         H            0.000000000000    -0.853130276003    -1.984953159546     1.007825032230
         H            0.000000000000     0.856209806217    -1.983160364382     1.007825032230

  Running in cs symmetry.

  Rotational constants: A =     11.44940  B =      0.10932  C =      0.10828 [cm^-1]
  Rotational constants: A = 343244.45659  B =   3277.24492  C =   3246.25022 [MHz]
  Nuclear repulsion =   20.995501427022305

  Charge       = 1
  Multiplicity = 2
  Electrons    = 17
  Nalpha       = 9
  Nbeta        = 8

  ==> Algorithm <==

  SCF Algorithm Type is DF.
  DIIS enabled.
  MOM disabled.
  Fractional occupation disabled.
  Guess Type is SAD.
  Energy threshold   = 1.00e-08
  Density threshold  = 1.00e-12
  Integral threshold = 1.00e-12

  ==> Primary Basis <==

  Basis Set: LANL2DZ
    Blend: LANL2DZ
    Number of shells: 13
    Number of basis functions: 21
    Number of Cartesian functions: 21
    Spherical Harmonics?: false
    Max angular momentum: 1

  Core potential: LANL2DZ
    Number of shells: 3
    Number of ECP primitives: 16
    Number of ECP core electrons: 10
    Max angular momentum: 2

   => Loading Basis Set <=

    Name: (LANL2DZ AUX)
    Role: JKFIT
    Keyword: DF_BASIS_SCF
    atoms 1   entry AR         line  1069 file /Users/andysim/programming/psi4/obj_opt/stage/share/psi4/basis/def2-universal-jkfit.gbs 
    atoms 2   entry O          line   318 file /Users/andysim/programming/psi4/obj_opt/stage/share/psi4/basis/def2-universal-jkfit.gbs 
    atoms 3-4 entry H          line    18 file /Users/andysim/programming/psi4/obj_opt/stage/share/psi4/basis/def2-universal-jkfit.gbs 

  ==> Integral Setup <==

  DFHelper Memory: AOs need 0.002 GiB; user supplied 0.366 GiB. Using in-core AOs.

  ==> MemDFJK: Density-Fitted J/K Matrices <==

    J tasked:                   Yes
    K tasked:                   Yes
    wK tasked:                   No
    OpenMP threads:               1
    Memory [MiB]:               375
    Algorithm:                 Core
    Schwarz Cutoff:           1E-12
    Mask sparsity (%):       0.9070
    Fitting Condition:        1E-10

   => Auxiliary Basis Set <=

  Basis Set: (LANL2DZ AUX)
    Blend: DEF2-UNIVERSAL-JKFIT
    Number of shells: 75
    Number of basis functions: 288
    Number of Cartesian functions: 288
    Spherical Harmonics?: false
    Max angular momentum: 4

  Minimum eigenvalue in the overlap matrix is 6.5912043445E-02.
  Reciprocal condition number of the overlap matrix is 1.9866664026E-02.
    Using symmetric orthogonalization.

  ==> Pre-Iterations <==

  SCF Guess: Superposition of Atomic Densities via on-the-fly atomic UHF (no occupation information).

   -------------------------
    Irrep   Nso     Nmo    
   -------------------------
     A'        17      17 
     A"         4       4 
   -------------------------
    Total      21      21
   -------------------------

  ==> Iterations <==

                           Total Energy        Delta E     RMS |[F,P]|

   @DF-UHF iter SAD:   -94.11414025253131   -9.41141e+01   0.00000e+00 
   @DF-UHF iter   1:   -96.02893438305506   -1.91479e+00   2.38214e-02 DIIS/ADIIS
   @DF-UHF iter   2:   -96.05786374852327   -2.89294e-02   3.85705e-02 DIIS/ADIIS
   @DF-UHF iter   3:   -96.23003750180845   -1.72174e-01   1.28160e-02 DIIS/ADIIS
   @DF-UHF iter   4:   -96.26902642335040   -3.89889e-02   7.96122e-03 DIIS/ADIIS
   @DF-UHF iter   5:   -96.28576415146091   -1.67377e-02   7.58638e-04 DIIS/ADIIS
   @DF-UHF iter   6:   -96.28593018653852   -1.66035e-04   3.78540e-04 DIIS/ADIIS
   @DF-UHF iter   7:   -96.28599443487593   -6.42483e-05   1.51200e-04 DIIS/ADIIS
   @DF-UHF iter   8:   -96.28600411868268   -9.68381e-06   6.16624e-05 DIIS
   @DF-UHF iter   9:   -96.28600532769551   -1.20901e-06   1.12351e-05 DIIS
   @DF-UHF iter  10:   -96.28600541775774   -9.00622e-08   1.47834e-06 DIIS
   @DF-UHF iter  11:   -96.28600541883293   -1.07519e-09   4.40518e-07 DIIS
   @DF-UHF iter  12:   -96.28600541893557   -1.02645e-10   9.23559e-08 DIIS
   @DF-UHF iter  13:   -96.28600541893755   -1.97531e-12   2.01455e-08 DIIS
   @DF-UHF iter  14:   -96.28600541893763   -8.52651e-14   8.07669e-09 DIIS
   @DF-UHF iter  15:   -96.28600541893769   -5.68434e-14   1.49703e-09 DIIS
   @DF-UHF iter  16:   -96.28600541893775   -5.68434e-14   3.45733e-10 DIIS
   @DF-UHF iter  17:   -96.28600541893772    2.84217e-14   6.23099e-11 DIIS
   @DF-UHF iter  18:   -96.28600541893772    0.00000e+00   1.83977e-11 DIIS
   @DF-UHF iter  19:   -96.28600541893769    2.84217e-14   5.08310e-12 DIIS
   @DF-UHF iter  20:   -96.28600541893769    0.00000e+00   1.88080e-12 DIIS
   @DF-UHF iter  21:   -96.28600541893766    2.84217e-14   5.70260e-13 DIIS
  Energy and wave function converged.


  ==> Post-Iterations <==

   @Spin Contamination Metric:   6.239841534E-03
   @S^2 Expected:                7.500000000E-01
   @S^2 Observed:                7.562398415E-01
   @S   Expected:                5.000000000E-01
   @S   Observed:                5.000000000E-01

    Orbital Energies [Eh]
    ---------------------

    Alpha Occupied:                                                       

       1Ap   -21.109638     2Ap    -1.890130     3Ap    -1.432442  
       4Ap    -1.220223     1App   -1.114590     5Ap    -1.055566  
       6Ap    -0.759787     7Ap    -0.754351     2App   -0.753820  

    Alpha Virtual:                                                        

       8Ap    -0.131275     9Ap    -0.038400     3App    0.403320  
      10Ap     0.463398    11Ap     0.601510    12Ap     0.667441  
      13Ap     0.760727     4App    0.785613    14Ap     0.852432  
      15Ap     0.867364    16Ap     1.253360    17Ap     5.230484  

    Beta Occupied:                                                        

       1Ap   -21.062856     2Ap    -1.725085     3Ap    -1.432486  
       4Ap    -1.178521     5Ap    -0.993216     6Ap    -0.759779  
       7Ap    -0.754367     1App   -0.753825  

    Beta Virtual:                                                         

       2App   -0.311957     8Ap    -0.115861     9Ap    -0.027552  
      10Ap     0.483521     3App    0.577500    11Ap     0.612537  
      12Ap     0.672280    13Ap     0.762063     4App    0.785936  
      14Ap     0.857695    15Ap     0.868555    16Ap     1.303717  
      17Ap     5.230502  

    Final Occupation by Irrep:
             Ap   App 
    DOCC [     7,    1 ]
    SOCC [     0,    1 ]

  @DF-UHF Final Energy:   -96.28600541893766

   => Energetics <=

    Nuclear Repulsion Energy =             20.9955014270223046
    One-Electron Energy =                -175.8123322691242265
    Two-Electron Energy =                  58.5308254231642593
    Total Energy =                        -96.2860054189376626

  UHF NO Occupations:
  HONO-2 :    6 Ap 1.9987761
  HONO-1 :    7 Ap 1.9984585
  HONO-0 :    2App 1.0000000
  LUNO+0 :    8 Ap 0.0015415
  LUNO+1 :    9 Ap 0.0012239
  LUNO+2 :   10 Ap 0.0003559
  LUNO+3 :   11 Ap 0.0000002


Computation Completed


Properties will be evaluated at   0.000000,   0.000000,   0.000000 [a0]

Properties computed using the SCF density matrix


 Multipole Moments:

 ------------------------------------------------------------------------------------
     Multipole            Electronic (a.u.)      Nuclear  (a.u.)        Total (a.u.)
 ------------------------------------------------------------------------------------

 L = 1.  Multiply by 2.5417464519 to convert [e a0] to [Debye]
 Dipole X            :          0.0000000            0.0000000            0.0000000
 Dipole Y            :          0.0012801            0.0028860            0.0041661
 Dipole Z            :         25.0154261          -28.4863652           -3.4709391
 Magnitude           :                                                    3.4709416

 ------------------------------------------------------------------------------------

*** tstop() called on armada.lan at Sat Apr 30 20:42:54 2022
Module time:
	user time   =       0.23 seconds =       0.00 minutes
	system time =       0.01 seconds =       0.00 minutes
	total time  =          1 seconds =       0.02 minutes
Total time:
	user time   =      10.73 seconds =       0.18 minutes
	system time =       0.62 seconds =       0.01 minutes
	total time  =         12 seconds =       0.20 minutes

*** tstart() called on armada.lan
*** at Sat Apr 30 20:42:54 2022


         ------------------------------------------------------------
                                   SCF GRAD                          
                          Rob Parrish, Justin Turney,                
                       Andy Simmonett, and Alex Sokolov              
         ------------------------------------------------------------

  ==> Geometry <==

    Molecular point group: cs
    Full point group: Cs

    Geometry (in Angstrom), charge = 1, multiplicity = 2:

       Center              X                  Y                   Z               Mass       
    ------------   -----------------  -----------------  -----------------  -----------------
         AR           0.000000000000    -0.000000000000     1.093338152877    39.962383123700
         O            0.000000000000    -0.000194038400    -2.481615873104    15.994914619570
         H            0.000000000000    -0.853130276003    -1.984953159546     1.007825032230
         H            0.000000000000     0.856209806217    -1.983160364382     1.007825032230

  Nuclear repulsion =   20.995501427022305

  ==> Basis Set <==

  Basis Set: LANL2DZ
    Blend: LANL2DZ
    Number of shells: 13
    Number of basis functions: 21
    Number of Cartesian functions: 21
    Spherical Harmonics?: false
    Max angular momentum: 1

  Core potential: LANL2DZ
    Number of shells: 3
    Number of ECP primitives: 16
    Number of ECP core electrons: 10
    Max angular momentum: 2

  ==> DFJKGrad: Density-Fitted SCF Gradients <==

    Gradient:                    1
    J tasked:                  Yes
    K tasked:                  Yes
    wK tasked:                  No
    OpenMP threads:              1
    Integrals threads:           1
    Memory [MiB]:              375
    Schwarz Cutoff:          1E-12
    Fitting Condition:       1E-10

   => Auxiliary Basis Set <=

  Basis Set: (LANL2DZ AUX)
    Blend: DEF2-UNIVERSAL-JKFIT
    Number of shells: 75
    Number of basis functions: 288
    Number of Cartesian functions: 288
    Spherical Harmonics?: false
    Max angular momentum: 4


  -Total Gradient:
     Atom            X                  Y                   Z
    ------   -----------------  -----------------  -----------------
       1        0.000000000000    -0.000000827189     0.000198162975
       2        0.000000000000    -0.002993461665     0.000011135628
       3        0.000000000000     0.001482817471    -0.000974709500
       4        0.000000000000     0.001511471383     0.000765410897


*** tstop() called on armada.lan at Sat Apr 30 20:42:54 2022
Module time:
	user time   =       0.05 seconds =       0.00 minutes
	system time =       0.01 seconds =       0.00 minutes
	total time  =          0 seconds =       0.00 minutes
Total time:
	user time   =      10.78 seconds =       0.18 minutes
	system time =       0.63 seconds =       0.01 minutes
	total time  =         12 seconds =       0.20 minutes

         ----------------------------------------------------------
                                   FINDIF
                     R. A. King and Jonathon Misiewicz
         ---------------------------------------------------------

  Computing second-derivative from gradients using projected, 
  symmetry-adapted, cartesian coordinates.

  10 gradients passed in, including the reference geometry.
  Generating complete list of displacements from unique ones.

    Operation 2 takes plus displacements of irrep B1 to minus ones.
    Operation 2 takes plus displacements of irrep B2 to minus ones.

-------------------------------------------------------------
    UHF ECP finite-diff of gradients vs. analytic Hessian to 10^-3........................PASSED

    Psi4 stopped on: Saturday, 30 April 2022 08:42PM
    Psi4 wall time for execution: 0:00:11.48

*** Psi4 exiting successfully. Buy a developer a beer!
