
    -----------------------------------------------------------------------
          Psi4: An Open-Source Ab Initio Electronic Structure Package
                               Psi4 1.2a1.dev673 

                         Git: Rev {snsmp2build} 2c649ee dirty


    R. M. Parrish, L. A. Burns, D. G. A. Smith, A. C. Simmonett,
    A. E. DePrince III, E. G. Hohenstein, U. Bozkaya, A. Yu. Sokolov,
    R. Di Remigio, R. M. Richard, J. F. Gonthier, A. M. James,
    H. R. McAlexander, A. Kumar, M. Saitow, X. Wang, B. P. Pritchard,
    P. Verma, H. F. Schaefer III, K. Patkowski, R. A. King, E. F. Valeev,
    F. A. Evangelista, J. M. Turney, T. D. Crawford, and C. D. Sherrill,
    J. Chem. Theory Comput. 13(7) pp 3185--3197 (2017).
    (doi: 10.1021/acs.jctc.7b00174)

    -----------------------------------------------------------------------


    Psi4 started on: Thursday, 23 November 2017 03:50AM

    Process ID:  22220
    PSIDATADIR: /home/psilocaluser/gits/hrw-ecp/objdir16/stage/home/psilocaluser/gits/hrw-ecp/install-psi4/share/psi4
    Memory:     500.0 MiB
    Threads:    1
    
  ==> Input File <==

--------------------------------------------------------------------------
#! H3 / cc-pvdz / D+D3 vs full CI, scf_type = PK

# job description
print('        H3 / cc-pvdz / D+D3 vs full CI, scf_type = PK')

sys.path.insert(0, '../../..')
import v2rdm_casscf

molecule h3 {
0 2
H
H 1 1.0
H 1 2.0 2 90.0
}

set {
  guess sad
  basis sto-3g
  scf_type pk
  d_convergence      1e-10
  guess sad
  maxiter 500
  reference rohf

}
set v2rdm_casscf {
  positivity d
  constrain_d3 true
  r_convergence  1e-5
  e_convergence  1e-6
  maxiter 20000
  optimize_orbitals false
  semicanonicalize_orbitals false
}

activate(h3)
v2rdm = energy('v2rdm-casscf')
fci   = energy('fci')

compare_values(v2rdm, fci, 5, "v2RDM vs full CI") # TEST

--------------------------------------------------------------------------

*** tstart() called on psinet
*** at Thu Nov 23 03:50:18 2017

   => Loading Basis Set <=

    Name: STO-3G
    Role: ORBITAL
    Keyword: BASIS
    atoms 1-3 entry H          line    19 file /home/psilocaluser/gits/hrw-ecp/objdir16/stage/home/psilocaluser/gits/hrw-ecp/install-psi4/share/psi4/basis/sto-3g.gbs 


         ---------------------------------------------------------
                                   SCF
            by Justin Turney, Rob Parrish, Andy Simmonett
                             and Daniel Smith
                             ROHF Reference
                        1 Threads,    500 MiB Core
         ---------------------------------------------------------

  ==> Geometry <==

    Molecular point group: cs
    Full point group: Cs

    Geometry (in Angstrom), charge = 0, multiplicity = 2:

       Center              X                  Y                   Z               Mass       
    ------------   -----------------  -----------------  -----------------  -----------------
           H          0.666666666667     0.333333333333     0.000000000000     1.007825032070
           H          0.666666666667    -0.666666666667     0.000000000000     1.007825032070
           H         -1.333333333333     0.333333333333     0.000000000000     1.007825032070

  Running in cs symmetry.

  Rotational constants: A =     35.98571  B =      5.83115  C =      5.01802 [cm^-1]
  Rotational constants: A = 1078824.39973  B = 174813.35711  C = 150436.53082 [MHz]
  Nuclear repulsion =    1.030421054995165

  Charge       = 0
  Multiplicity = 2
  Electrons    = 3
  Nalpha       = 2
  Nbeta        = 1

  ==> Algorithm <==

  SCF Algorithm Type is PK.
  DIIS enabled.
  MOM disabled.
  Fractional occupation disabled.
  Guess Type is SAD.
  Energy threshold   = 1.00e-08
  Density threshold  = 1.00e-10
  Integral threshold = 0.00e+00

  ==> Primary Basis <==

  Basis Set: STO-3G
    Blend: STO-3G
    Number of shells: 3
    Number of basis function: 3
    Number of Cartesian functions: 3
    Spherical Harmonics?: true
    Max angular momentum: 0

  ==> Pre-Iterations <==

   -------------------------------------------------------
    Irrep   Nso     Nmo     Nalpha   Nbeta   Ndocc  Nsocc
   -------------------------------------------------------
     A'         3       3       0       0       0       0
     A"         0       0       0       0       0       0
   -------------------------------------------------------
    Total       3       3       2       1       1       1
   -------------------------------------------------------

  ==> Integral Setup <==

  Using in-core PK algorithm.
   Calculation information:
      Number of atoms:                   3
      Number of AO shells:               3
      Number of primitives:              9
      Number of atomic orbitals:         3
      Number of basis functions:         3

      Integral cutoff                 1.00e-12
      Number of threads:                 1

  Performing in-core PK
  Using 42 doubles for integral storage.
  We computed 21 shell quartets total.
  Whereas there are 21 unique shell quartets.
  ==> DiskJK: Disk-Based J/K Matrices <==

    J tasked:                  Yes
    K tasked:                  Yes
    wK tasked:                  No
    Memory (MB):               375
    Schwarz Cutoff:          1E-12

    OpenMP threads:              1
  Minimum eigenvalue in the overlap matrix is 5.0189908481E-01.
  Using Symmetric Orthogonalization.

  SCF Guess: Superposition of Atomic Densities via on-the-fly atomic UHF.

  ==> Iterations <==

                        Total Energy        Delta E     RMS |[F,P]|

   @ROHF iter   0:    -1.41417100164035   -1.41417e+00   0.00000e+00 
   @ROHF iter   1:    -0.58141553777446    8.32755e-01   9.35796e-02 
   @ROHF iter   2:    -1.09097542293345   -5.09560e-01   7.86441e-02 DIIS
   @ROHF iter   3:    -1.51925839237198   -4.28283e-01   2.14183e-02 DIIS
   @ROHF iter   4:    -1.52678424699109   -7.52585e-03   2.98101e-03 DIIS
   @ROHF iter   5:    -1.52692269024700   -1.38443e-04   9.26907e-05 DIIS
   @ROHF iter   6:    -1.52692281324261   -1.22996e-07   8.84695e-06 DIIS
   @ROHF iter   7:    -1.52692281438236   -1.13974e-09   4.84250e-07 DIIS
   @ROHF iter   8:    -1.52692281438612   -3.76010e-12   4.35683e-10 DIIS
   @ROHF iter   9:    -1.52692281438612    0.00000e+00   2.22402e-12 DIIS

  ==> Post-Iterations <==

    Orbital Energies (a.u.)
    -----------------------

    Doubly Occupied:                                                      

       1Ap    -0.490236  

    Singly Occupied:                                                      

       2Ap    -0.064297  

    Virtual:                                                              

       3Ap     0.457501  

    Final Occupation by Irrep:
             Ap   App 
    DOCC [     1,    0 ]
    SOCC [     1,    0 ]

  Energy converged.

  @ROHF Final Energy:    -1.52692281438612

   => Energetics <=

    Nuclear Repulsion Energy =              1.0304210549951651
    One-Electron Energy =                  -3.6846887642415758
    Two-Electron Energy =                   1.1273448948602929
    Total Energy =                         -1.5269228143861180



Properties will be evaluated at   0.000000,   0.000000,   0.000000 Bohr

Properties computed using the SCF density matrix

  Nuclear Dipole Moment: (a.u.)
     X:     0.0000      Y:     0.0000      Z:     0.0000

  Electronic Dipole Moment: (a.u.)
     X:     0.0228      Y:    -0.0018      Z:     0.0000

  Dipole Moment: (a.u.)
     X:     0.0228      Y:    -0.0018      Z:     0.0000     Total:     0.0229

  Dipole Moment: (Debye)
     X:     0.0579      Y:    -0.0046      Z:     0.0000     Total:     0.0581


*** tstop() called on psinet at Thu Nov 23 03:50:18 2017
Module time:
	user time   =       0.19 seconds =       0.00 minutes
	system time =       0.01 seconds =       0.00 minutes
	total time  =          0 seconds =       0.00 minutes
Total time:
	user time   =       0.19 seconds =       0.00 minutes
	system time =       0.01 seconds =       0.00 minutes
	total time  =          0 seconds =       0.00 minutes
 MINTS: Wrapper to libmints.
   by Justin Turney

   Calculation information:
      Number of threads:                 1
      Number of atoms:                   3
      Number of AO shells:               3
      Number of SO shells:               3
      Number of primitives:              9
      Number of atomic orbitals:         3
      Number of basis functions:         3

      Number of irreps:                  2
      Integral cutoff                 0.00e+00
      Number of functions per irrep: [   3    0 ]

 OEINTS: Overlap, kinetic, potential, dipole, and quadrupole integrals
         stored in file 35.

      Computing two-electron integrals...done
      Computed 21 non-zero two-electron integrals.
        Stored in file 33.


Reading options from the V2RDM_CASSCF block
Calling plugin v2rdm_casscf.so.



*** tstart() called on psinet
*** at Thu Nov 23 03:50:18 2017



        ****************************************************
        *                                                  *
        *    v2RDM-CASSCF (PRIVATE)                        *
        *                                                  *
        *    A variational 2-RDM-driven approach to the    *
        *    active space self-consistent field method     *
        *                                                  *
        ****************************************************


        The following papers should be cited when using v2RDM-CASSCF:

        J. Fosso-Tande, D. R. Nascimento, and A. E. DePrince III,
        Mol. Phys. 114, 423-430 (2015).

            URL: http://dx.doi.org/10.1080/00268976.2015.1078008

        J. Fosso-Tande, T.-S. Nguyen, G. Gidofalvi, and
        A. E. DePrince III, J. Chem. Theory Comput. accepted (2016).

            URL: http://dx.doi.org/10.1021/acs.jctc.6b00190



  ==> Convergence parameters <==

        r_convergence:                      1.000e-05
        e_convergence:                      1.000e-06
        cg_convergence:                     1.000e-09
        maxiter:                                20000
        cg_maxiter:                             10000

  ==> Active space details <==

        Number of frozen core orbitals:             0
        Number of restricted occupied orbitals:     0
        Number of active occupied orbitals:         1
        Number of active virtual orbitals:          2
        Number of restricted virtual orbitals:      0
        Number of frozen virtual orbitals:          0

        Irrep:             Ap, App 
 
        frozen_docc     [   0,   0 ]
        restricted_docc [   0,   0 ]
        active          [   3,   0 ]
        restricted_uocc [   0,   0 ]
        frozen_uocc     [   0,   0 ]

  ==> Orbital optimization parameters <==

        1-step algorithm:                    true
        g_convergence:                  1.000e-06
        e_convergence:                  1.000e-08
        maximum iterations:                    20
        frequency:                            500
        active-active rotations:            false
        exact diagonal Hessian:             false
        number of DIIS vectors:                 0
        print iteration info:               false

  ==> Memory requirements <==

        D2:                          0.00 mb
        D3:                          0.00 mb

        Total number of variables:            623
        Total number of constraints:          481
        Total memory requirements:        0.04 mb

    ==> Transform two-electron integrals <==

	Presorting SO-basis two-electron integrals.
	Sorting File: SO Ints (nn|nn) nbuckets = 1
	Transforming the one-electron integrals and constructing Fock matrices
	Starting first half-transformation.
	Sorting half-transformed integrals.
	First half integral transformation complete.
	Starting second half-transformation.
	Two-electron integral transformation complete.

        Time for integral transformation:     0.00 s

    Molecular point group: cs
    Full point group: Cs

    Geometry (in Angstrom), charge = 0, multiplicity = 2:

       Center              X                  Y                   Z               Mass       
    ------------   -----------------  -----------------  -----------------  -----------------
           H          0.666666666667     0.333333333333     0.000000000000     1.007825032070
           H          0.666666666667    -0.666666666667     0.000000000000     1.007825032070
           H         -1.333333333333     0.333333333333     0.000000000000     1.007825032070

  -AO BASIS SET INFORMATION:
    Name                   = STO-3G
    Blend                  = STO-3G
    Total number of shells = 3
    Number of primitives   = 9
    Number of AO           = 3
    Number of SO           = 3
    Maximum AM             = 0
    Spherical Harmonics    = TRUE

  -Contraction Scheme:
    Atom   Type   All Primitives // Shells:
   ------ ------ --------------------------
       1     H     3s // 1s 
       2     H     3s // 1s 
       3     H     3s // 1s 

  ==> AO Basis Functions <==

    [ STO-3G ]
    spherical
    ****
    H   1
    S   3 1.00
                         3.42525091           0.15432897
                         0.62391373           0.53532814
                         0.16885540           0.44463454
    ****
    H   2
    S   3 1.00
                         3.42525091           0.15432897
                         0.62391373           0.53532814
                         0.16885540           0.44463454
    ****
    H   3
    S   3 1.00
                         3.42525091           0.15432897
                         0.62391373           0.53532814
                         0.16885540           0.44463454
    ****


        Read integrals......done.


    reference energy:          -1.526922814386
    frozen core energy:         0.000000000000
    initial 2-RDM energy:      -1.151899007528

      oiter iiter        E(p)        E(d)      E gap)      mu     eps(p)     eps(d)
          0    20    3.836634   28.621641   24.785007   1.000   30.63501   45.26475
          1    15    0.053344  -28.485921   28.539265   1.000    3.97614   22.20602
          2    16   -1.144355   -7.285650    6.141295   1.000    2.68837    3.64972
          3    15   -1.220484   -4.920533    3.700049   1.000    2.33577    1.46009
          4    14   -1.139555   -4.034705    2.895150   1.000    1.84375    0.83680
          5    12   -1.248354   -3.228814    1.980461   1.000    1.71051    0.58411
          6    14   -1.396103   -2.282894    0.886790   1.000    1.58905    0.51622
          7    12   -1.308161   -1.570363    0.262203   1.000    1.25755    0.47317
          8    12   -1.195204   -1.221156    0.025952   1.000    0.89587    0.39420
          9    12   -1.148569   -1.145657    0.002912   1.000    0.61322    0.35761
         10    11   -1.171538   -1.164094    0.007444   1.000    0.47600    0.25446
         11    10   -1.203696   -1.135540    0.068156   1.000    0.38156    0.22102
         12    10   -1.257243   -1.121890    0.135353   1.000    0.30765    0.21395
         13    10   -1.311806   -1.113642    0.198164   1.000    0.24059    0.21744
         14     9   -1.364547   -1.126863    0.237684   1.000    0.19630    0.21496
         15    10   -1.397474   -1.150815    0.246660   1.000    0.18661    0.19348
         16    10   -1.409314   -1.206621    0.202693   1.000    0.20306    0.15878
         17    11   -1.423273   -1.304411    0.118862   1.000    0.19810    0.13331
         18    11   -1.431661   -1.380255    0.051406   1.000    0.16966    0.12278
         19    11   -1.440012   -1.441327    0.001315   1.000    0.12251    0.12317
         20     9   -1.448250   -1.465256    0.017006   1.000    0.07735    0.12366
         21    10   -1.454566   -1.455787    0.001222   1.000    0.06279    0.11848
         22    12   -1.460046   -1.427753    0.032293   1.000    0.07469    0.10957
         23    11   -1.463290   -1.399328    0.063961   1.000    0.08255    0.10160
         24    10   -1.467200   -1.380997    0.086203   1.000    0.08466    0.09515
         25     9   -1.471522   -1.369807    0.101716   1.000    0.08111    0.09047
         26     8   -1.477543   -1.366541    0.111001   1.000    0.07322    0.08769
         27     9   -1.485269   -1.367741    0.117528   1.000    0.06159    0.08673
         28     8   -1.493870   -1.370593    0.123277   1.000    0.04780    0.08656
         29     8   -1.502905   -1.372983    0.129922   1.000    0.03518    0.08594
         30     9   -1.511842   -1.374726    0.137116   1.000    0.02829    0.08427
         31    10   -1.520266   -1.376033    0.144233   1.000    0.02892    0.08184
         32    10   -1.527967   -1.377563    0.150403   1.000    0.03283    0.07934
         33    10   -1.534785   -1.380080    0.154705   1.000    0.03589    0.07738
         34     9   -1.540814   -1.383757    0.157057   1.000    0.03669    0.07620
         35     9   -1.545563   -1.388362    0.157201   1.000    0.03509    0.07556
         36    10   -1.549910   -1.394902    0.155007   1.000    0.03153    0.07535
         37    10   -1.554206   -1.399939    0.154267   1.000    0.02692    0.07522
         38     9   -1.558109   -1.402453    0.155656   1.000    0.02253    0.07487
         39     9   -1.559041   -1.403889    0.155152   1.000    0.02652    0.06573
         40    12   -1.562190   -1.423202    0.138988   1.000    0.04749    0.05061
         41    13   -1.562418   -1.480436    0.081982   1.000    0.05898    0.03565
         42    13   -1.564418   -1.528802    0.035616   1.000    0.05813    0.02869
         43    13   -1.566564   -1.560198    0.006366   1.000    0.05276    0.02559
         44    13   -1.567568   -1.576843    0.009275   1.000    0.04792    0.02222
         45    12   -1.567477   -1.584008    0.016530   1.000    0.04346    0.01919
         46    12   -1.566462   -1.586788    0.020326   1.000    0.03773    0.01831
         47    12   -1.564854   -1.588464    0.023610   1.000    0.03035    0.01946
         48    11   -1.563032   -1.590428    0.027396   1.000    0.02220    0.02101
         49    10   -1.561278   -1.592748    0.031470   1.000    0.01466    0.02173
         50    10   -1.559757   -1.594616    0.034859   1.000    0.00958    0.02126
         51    10   -1.558541   -1.594977    0.036436   1.000    0.00938    0.01964
         52    11   -1.557605   -1.593108    0.035504   1.000    0.01257    0.01719
         53    11   -1.556940   -1.588741    0.031800   1.000    0.01601    0.01433
         54    11   -1.556538   -1.582132    0.025594   1.000    0.01853    0.01155
         55    12   -1.556389   -1.574018    0.017629   1.000    0.01977    0.00941
         56    12   -1.556556   -1.565206    0.008650   1.000    0.01961    0.00839
         57    13   -1.557103   -1.556805    0.000298   1.000    0.01805    0.00856
         58    12   -1.559865   -1.549653    0.010211   1.000    0.01516    0.00961
         59    10   -1.560411   -1.545675    0.014735   1.000    0.01199    0.01004
         60    10   -1.561001   -1.542250    0.018750   1.000    0.00842    0.01044
         61     9   -1.561531   -1.540452    0.021079   1.000    0.00493    0.01044
         62    10   -1.562068   -1.540494    0.021574   1.000    0.00337    0.00998
         63    13   -1.562496   -1.542275    0.020221   1.000    0.00524    0.00914
         64    13   -1.562881   -1.545413    0.017468   1.000    0.00772    0.00802
         65    12   -1.563330   -1.549465    0.013865   1.000    0.00951    0.00681
         66    13   -1.563488   -1.554245    0.009243   1.000    0.01050    0.00576
         67    13   -1.563615   -1.559399    0.004216   1.000    0.01074    0.00505
         68    13   -1.563550   -1.563777    0.000227   1.000    0.01025    0.00481
         69    12   -1.563346   -1.567277    0.003931   1.000    0.00923    0.00491
         70    11   -1.563029   -1.569752    0.006722   1.000    0.00784    0.00515
         71    10   -1.562661   -1.571169    0.008509   1.000    0.00630    0.00534
         72     8   -1.562282   -1.571617    0.009335   1.000    0.00481    0.00541
         73    10   -1.561887   -1.571292    0.009406   1.000    0.00362    0.00532
         74    10   -1.561558   -1.570354    0.008796   1.000    0.00305    0.00507
         75    11   -1.561588   -1.569003    0.007415   1.000    0.00309    0.00471
         76    10   -1.561624   -1.567618    0.005994   1.000    0.00373    0.00425
         77    10   -1.561522   -1.566103    0.004581   1.000    0.00442    0.00373
         78    10   -1.561299   -1.564415    0.003116   1.000    0.00498    0.00320
         79    12   -1.561209   -1.563298    0.002090   1.000    0.00513    0.00276
         80    13   -1.561259   -1.562100    0.000840   1.000    0.00487    0.00257
         81    13   -1.561377   -1.560792    0.000584   1.000    0.00435    0.00259
         82    12   -1.561527   -1.559472    0.002055   1.000    0.00367    0.00269
         83    10   -1.561708   -1.558299    0.003409   1.000    0.00291    0.00278
         84    10   -1.561870   -1.557481    0.004388   1.000    0.00216    0.00280
         85     9   -1.562019   -1.557078    0.004941   1.000    0.00164    0.00275
         86    10   -1.562146   -1.557138    0.005008   1.000    0.00158    0.00261
         87    12   -1.562240   -1.557617    0.004623   1.000    0.00192    0.00240
         88    12   -1.562321   -1.558419    0.003902   1.000    0.00233    0.00216
         89    12   -1.562419   -1.559421    0.002998   1.000    0.00263    0.00190
         90    13   -1.562466   -1.560524    0.001942   1.000    0.00276    0.00169
         91    13   -1.562470   -1.561575    0.000895   1.000    0.00272    0.00155
         92    13   -1.562438   -1.562495    0.000057   1.000    0.00255    0.00148
         93    12   -1.562366   -1.563240    0.000874   1.000    0.00226    0.00149
         94    10   -1.562247   -1.563845    0.001599   1.000    0.00192    0.00152
         95    10   -1.562153   -1.564308    0.002155   1.000    0.00159    0.00154
         96     9   -1.562057   -1.564481    0.002425   1.000    0.00132    0.00153
         97     9   -1.562025   -1.564439    0.002414   1.000    0.00115    0.00149
         98    10   -1.562002   -1.564262    0.002260   1.000    0.00114    0.00140
         99    10   -1.561956   -1.563941    0.001985   1.000    0.00124    0.00129
        100    10   -1.561920   -1.563502    0.001582   1.000    0.00136    0.00117
        101    10   -1.561893   -1.563014    0.001121   1.000    0.00145    0.00105
        102    10   -1.561878   -1.562527    0.000649   1.000    0.00149    0.00096
        103    10   -1.561877   -1.562074    0.000198   1.000    0.00147    0.00090
        104    10   -1.561887   -1.561680    0.000207   1.000    0.00140    0.00087
        105    10   -1.561895   -1.561362    0.000533   1.000    0.00130    0.00086
        106    10   -1.561916   -1.561168    0.000747   1.000    0.00119    0.00086
        107    10   -1.561951   -1.561051    0.000900   1.000    0.00106    0.00085
        108    10   -1.561994   -1.560986    0.001009   1.000    0.00097    0.00084
        109     9   -1.562037   -1.560972    0.001065   1.000    0.00091    0.00081
        110    10   -1.562075   -1.561016    0.001059   1.000    0.00091    0.00077
        111    10   -1.562090   -1.561120    0.000970   1.000    0.00093    0.00072
        112    10   -1.562094   -1.561327    0.000768   1.000    0.00096    0.00067
        113    10   -1.562103   -1.561577    0.000526   1.000    0.00099    0.00061
        114    10   -1.562108   -1.561816    0.000292   1.000    0.00100    0.00057
        115    10   -1.562108   -1.562036    0.000071   1.000    0.00099    0.00054
        116    10   -1.562103   -1.562219    0.000116   1.000    0.00096    0.00051
        117    10   -1.562094   -1.562357    0.000263   1.000    0.00092    0.00050
        118    10   -1.562082   -1.562449    0.000367   1.000    0.00087    0.00049
        119    10   -1.562068   -1.562499    0.000431   1.000    0.00081    0.00048
        120    10   -1.562053   -1.562510    0.000457   1.000    0.00077    0.00048
        121    10   -1.562039   -1.562491    0.000452   1.000    0.00073    0.00046
        122    10   -1.562026   -1.562447    0.000422   1.000    0.00072    0.00044
        123    10   -1.562014   -1.562386    0.000372   1.000    0.00071    0.00042
        124    10   -1.562005   -1.562314    0.000308   1.000    0.00072    0.00039
        125    10   -1.561999   -1.562235    0.000236   1.000    0.00072    0.00036
        126    10   -1.561995   -1.562155    0.000159   1.000    0.00072    0.00033
        127    10   -1.561991   -1.562078    0.000087   1.000    0.00072    0.00031
        128    11   -1.561993   -1.562017    0.000024   1.000    0.00070    0.00030
        129    10   -1.562001   -1.561951    0.000050   1.000    0.00068    0.00029
        130    10   -1.562008   -1.561885    0.000124   1.000    0.00065    0.00028
        131    10   -1.562011   -1.561838    0.000173   1.000    0.00063    0.00028
        132    10   -1.562018   -1.561818    0.000200   1.000    0.00061    0.00027
        133    10   -1.562025   -1.561808    0.000216   1.000    0.00059    0.00027
        134    10   -1.562031   -1.561813    0.000217   1.000    0.00058    0.00025
        135    10   -1.562037   -1.561831    0.000206   1.000    0.00058    0.00024
        136    10   -1.562042   -1.561858    0.000184   1.000    0.00058    0.00023
        137    10   -1.562045   -1.561893    0.000152   1.000    0.00057    0.00021
        138    10   -1.562047   -1.561933    0.000115   1.000    0.00057    0.00020
        139    11   -1.562048   -1.561975    0.000074   1.000    0.00056    0.00019
        140    11   -1.562048   -1.562017    0.000031   1.000    0.00055    0.00018
        141    11   -1.562046   -1.562056    0.000010   1.000    0.00053    0.00017
        142    11   -1.562043   -1.562091    0.000047   1.000    0.00052    0.00017
        143    11   -1.562040   -1.562118    0.000078   1.000    0.00051    0.00017
        144    10   -1.562036   -1.562138    0.000102   1.000    0.00050    0.00016
        145    10   -1.562032   -1.562149    0.000117   1.000    0.00049    0.00016
        146    10   -1.562029   -1.562152    0.000123   1.000    0.00048    0.00015
        147    10   -1.562025   -1.562146    0.000121   1.000    0.00047    0.00014
        148    11   -1.562022   -1.562133    0.000110   1.000    0.00046    0.00013
        149    11   -1.562020   -1.562113    0.000093   1.000    0.00046    0.00012
        150    11   -1.562019   -1.562090    0.000071   1.000    0.00045    0.00012
        151    11   -1.562018   -1.562064    0.000047   1.000    0.00044    0.00011
        152    11   -1.562018   -1.562038    0.000021   1.000    0.00044    0.00011
        153    11   -1.562019   -1.562014    0.000005   1.000    0.00043    0.00010
        154    11   -1.562020   -1.561993    0.000027   1.000    0.00042    0.00010
        155    11   -1.562022   -1.561976    0.000046   1.000    0.00041    0.00010
        156    11   -1.562024   -1.561964    0.000060   1.000    0.00040    0.00009
        157    10   -1.562026   -1.561958    0.000068   1.000    0.00040    0.00009
        158    10   -1.562027   -1.561957    0.000070   1.000    0.00039    0.00009
        159    11   -1.562029   -1.561961    0.000068   1.000    0.00038    0.00008
        160    11   -1.562031   -1.561970    0.000061   1.000    0.00038    0.00008
        161    11   -1.562032   -1.561982    0.000050   1.000    0.00037    0.00008
        162    11   -1.562032   -1.561996    0.000037   1.000    0.00037    0.00007
        163    11   -1.562033   -1.562010    0.000022   1.000    0.00036    0.00007
        164    11   -1.562032   -1.562025    0.000008   1.000    0.00036    0.00007
        165    11   -1.562032   -1.562038    0.000006   1.000    0.00035    0.00006
        166    11   -1.562031   -1.562049    0.000018   1.000    0.00034    0.00006
        167    11   -1.562030   -1.562057    0.000027   1.000    0.00034    0.00006
        168    11   -1.562029   -1.562062    0.000033   1.000    0.00033    0.00006
        169    11   -1.562028   -1.562064    0.000037   1.000    0.00032    0.00006
        170    10   -1.562027   -1.562064    0.000037   1.000    0.00032    0.00005
        171    11   -1.562026   -1.562060    0.000035   1.000    0.00031    0.00005
        172    11   -1.562025   -1.562055    0.000030   1.000    0.00031    0.00005
        173    11   -1.562024   -1.562049    0.000024   1.000    0.00030    0.00005
        174    11   -1.562024   -1.562041    0.000017   1.000    0.00030    0.00004
        175    11   -1.562024   -1.562034    0.000010   1.000    0.00029    0.00004
        176    11   -1.562024   -1.562026    0.000002   1.000    0.00029    0.00004
        177    11   -1.562024   -1.562020    0.000004   1.000    0.00028    0.00004
        178    11   -1.562024   -1.562015    0.000009   1.000    0.00028    0.00004
        179    11   -1.562025   -1.562011    0.000014   1.000    0.00028    0.00004
        180    11   -1.562025   -1.562009    0.000016   1.000    0.00027    0.00004
        181    11   -1.562026   -1.562008    0.000018   1.000    0.00027    0.00004
        182    11   -1.562026   -1.562009    0.000018   1.000    0.00026    0.00003
        183    11   -1.562027   -1.562010    0.000016   1.000    0.00026    0.00003
        184    11   -1.562027   -1.562013    0.000014   1.000    0.00025    0.00003
        185    11   -1.562027   -1.562016    0.000011   1.000    0.00025    0.00003
        186    11   -1.562027   -1.562019    0.000008   1.000    0.00024    0.00003
        187    11   -1.562028   -1.562023    0.000005   1.000    0.00024    0.00003
        188    11   -1.562027   -1.562026    0.000001   1.000    0.00024    0.00003
        189    11   -1.562027   -1.562029    0.000002   1.000    0.00023    0.00003
        190    11   -1.562027   -1.562031    0.000004   1.000    0.00023    0.00003
        191    11   -1.562027   -1.562033    0.000006   1.000    0.00023    0.00002
        192    11   -1.562027   -1.562034    0.000008   1.000    0.00022    0.00002
        193    11   -1.562026   -1.562035    0.000008   1.000    0.00022    0.00002
        194    11   -1.562026   -1.562035    0.000009   1.000    0.00021    0.00002
        195    11   -1.562026   -1.562034    0.000008   1.000    0.00021    0.00002
        196    11   -1.562026   -1.562033    0.000007   1.000    0.00021    0.00002
        197    11   -1.562025   -1.562031    0.000006   1.000    0.00020    0.00002
        198    11   -1.562025   -1.562030    0.000004   1.000    0.00020    0.00002
        199    11   -1.562025   -1.562028    0.000003   1.000    0.00020    0.00002
        200    11   -1.562025   -1.562026    0.000001   1.000    0.00019    0.00002
        201    11   -1.562025   -1.562025    0.000000   1.000    0.00019    0.00002
        202    11   -1.562025   -1.562024    0.000002   1.000    0.00019    0.00002
        203    11   -1.562025   -1.562023    0.000003   1.000    0.00018    0.00002
        204    11   -1.562025   -1.562022    0.000004   1.000    0.00018    0.00002
        205    11   -1.562026   -1.562021    0.000004   1.000    0.00018    0.00002
        206    11   -1.562026   -1.562021    0.000004   1.000    0.00018    0.00002
        207    11   -1.562026   -1.562022    0.000004   1.000    0.00017    0.00002
        208    11   -1.562026   -1.562022    0.000004   1.000    0.00017    0.00002
        209    11   -1.562026   -1.562023    0.000003   1.000    0.00017    0.00002
        210    11   -1.562026   -1.562023    0.000003   1.000    0.00016    0.00002
        211    11   -1.562026   -1.562024    0.000002   1.000    0.00016    0.00001
        212    11   -1.562026   -1.562025    0.000001   1.000    0.00016    0.00001
        213    11   -1.562026   -1.562026    0.000000   1.000    0.00016    0.00001
        214    11   -1.562026   -1.562027    0.000001   1.000    0.00015    0.00001
        215    11   -1.562026   -1.562027    0.000001   1.000    0.00015    0.00001
        216    11   -1.562026   -1.562028    0.000002   1.000    0.00015    0.00001
        217    11   -1.562026   -1.562028    0.000002   1.000    0.00015    0.00001
        218    11   -1.562026   -1.562028    0.000002   1.000    0.00014    0.00001
        219    11   -1.562026   -1.562028    0.000002   1.000    0.00014    0.00001
        220    11   -1.562025   -1.562028    0.000002   1.000    0.00014    0.00001
        221    11   -1.562025   -1.562027    0.000002   1.000    0.00014    0.00001
        222    11   -1.562025   -1.562027    0.000001   1.000    0.00013    0.00001
        223    11   -1.562025   -1.562026    0.000001   1.000    0.00013    0.00001
        224    11   -1.562025   -1.562026    0.000000   1.000    0.00013    0.00001
        225    11   -1.562025   -1.562025    0.000000   1.000    0.00013    0.00001
        226    11   -1.562025   -1.562025    0.000000   1.000    0.00013    0.00001
        227    11   -1.562025   -1.562025    0.000001   1.000    0.00012    0.00001
        228    11   -1.562025   -1.562024    0.000001   1.000    0.00012    0.00001
        229    11   -1.562025   -1.562024    0.000001   1.000    0.00012    0.00001
        230    11   -1.562025   -1.562024    0.000001   1.000    0.00012    0.00001
        231    11   -1.562025   -1.562024    0.000001   1.000    0.00012    0.00001
        232    11   -1.562025   -1.562024    0.000001   1.000    0.00011    0.00001
        233    11   -1.562025   -1.562024    0.000001   1.000    0.00011    0.00001
        234    11   -1.562025   -1.562025    0.000001   1.000    0.00011    0.00001
        235    11   -1.562025   -1.562025    0.000001   1.000    0.00011    0.00001
        236    11   -1.562025   -1.562025    0.000000   1.000    0.00011    0.00001
        237    11   -1.562025   -1.562025    0.000000   1.000    0.00010    0.00001
        238    11   -1.562025   -1.562026    0.000000   1.000    0.00010    0.00001
        239    11   -1.562025   -1.562026    0.000000   1.000    0.00010    0.00001
        240    11   -1.562025   -1.562026    0.000000   1.000    0.00010    0.00001
        241    11   -1.562025   -1.562026    0.000001   1.000    0.00010    0.00001
        242    11   -1.562025   -1.562026    0.000001   1.000    0.00010    0.00001
        243    11   -1.562025   -1.562026    0.000001   1.000    0.00009    0.00001
        244    11   -1.562025   -1.562026    0.000001   1.000    0.00009    0.00001
        245    11   -1.562025   -1.562026    0.000000   1.000    0.00009    0.00001
        246    11   -1.562025   -1.562026    0.000000   1.000    0.00009    0.00001
        247    11   -1.562025   -1.562025    0.000000   1.000    0.00009    0.00001
        248    11   -1.562025   -1.562025    0.000000   1.000    0.00009    0.00001
        249    11   -1.562025   -1.562025    0.000000   1.000    0.00009    0.00001
        250    11   -1.562025   -1.562025    0.000000   1.000    0.00008    0.00001
        251    11   -1.562025   -1.562025    0.000000   1.000    0.00008    0.00001
        252    11   -1.562025   -1.562025    0.000000   1.000    0.00008    0.00001
        253    11   -1.562025   -1.562025    0.000000   1.000    0.00008    0.00001
        254    11   -1.562025   -1.562025    0.000000   1.000    0.00008    0.00001
        255    11   -1.562025   -1.562025    0.000000   1.000    0.00008    0.00001
        256    11   -1.562025   -1.562025    0.000000   1.000    0.00008    0.00001
        257    11   -1.562025   -1.562025    0.000000   1.000    0.00007    0.00001
        258    11   -1.562025   -1.562025    0.000000   1.000    0.00007    0.00001
        259    11   -1.562025   -1.562025    0.000000   1.000    0.00007    0.00001
        260    11   -1.562025   -1.562025    0.000000   1.000    0.00007    0.00001
        261    11   -1.562025   -1.562025    0.000000   1.000    0.00007    0.00001
        262    11   -1.562025   -1.562025    0.000000   1.000    0.00007    0.00001
        263    11   -1.562025   -1.562025    0.000000   1.000    0.00007    0.00001
        264    11   -1.562025   -1.562025    0.000000   1.000    0.00007    0.00001
        265    11   -1.562025   -1.562025    0.000000   1.000    0.00007    0.00001
        266    11   -1.562025   -1.562025    0.000000   1.000    0.00006    0.00001
        267    11   -1.562025   -1.562025    0.000000   1.000    0.00006    0.00001
        268    11   -1.562025   -1.562025    0.000000   1.000    0.00006    0.00001
        269    11   -1.562025   -1.562025    0.000000   1.000    0.00006    0.00001
        270    11   -1.562025   -1.562025    0.000000   1.000    0.00006    0.00001
        271    11   -1.562025   -1.562025    0.000000   1.000    0.00006    0.00001
        272    11   -1.562025   -1.562025    0.000000   1.000    0.00006    0.00001
        273    11   -1.562025   -1.562025    0.000000   1.000    0.00006    0.00001
        274    11   -1.562025   -1.562025    0.000000   1.000    0.00006    0.00001
        275    11   -1.562025   -1.562025    0.000000   1.000    0.00006    0.00001
        276    11   -1.562025   -1.562025    0.000000   1.000    0.00005    0.00000
        277    11   -1.562025   -1.562025    0.000000   1.000    0.00005    0.00000
        278    11   -1.562025   -1.562025    0.000000   1.000    0.00005    0.00000
        279    11   -1.562025   -1.562025    0.000000   1.000    0.00005    0.00000
        280    11   -1.562025   -1.562025    0.000000   1.000    0.00005    0.00000
        281    11   -1.562025   -1.562025    0.000000   1.000    0.00005    0.00000
        282    11   -1.562025   -1.562025    0.000000   1.000    0.00005    0.00000
        283    11   -1.562025   -1.562025    0.000000   1.000    0.00005    0.00000
        284    11   -1.562025   -1.562025    0.000000   1.000    0.00005    0.00000
        285    11   -1.562025   -1.562025    0.000000   1.000    0.00005    0.00000
        286    11   -1.562025   -1.562025    0.000000   1.000    0.00005    0.00000
        287    11   -1.562025   -1.562025    0.000000   1.000    0.00005    0.00000
        288    11   -1.562025   -1.562025    0.000000   1.000    0.00004    0.00000
        289    11   -1.562025   -1.562025    0.000000   1.000    0.00004    0.00000
        290    11   -1.562025   -1.562025    0.000000   1.000    0.00004    0.00000
        291    11   -1.562025   -1.562025    0.000000   1.000    0.00004    0.00000
        292    11   -1.562025   -1.562025    0.000000   1.000    0.00004    0.00000
        293    11   -1.562025   -1.562025    0.000000   1.000    0.00004    0.00000
        294    11   -1.562025   -1.562025    0.000000   1.000    0.00004    0.00000
        295    11   -1.562025   -1.562025    0.000000   1.000    0.00004    0.00000
        296    11   -1.562025   -1.562025    0.000000   1.000    0.00004    0.00000
        297    11   -1.562025   -1.562025    0.000000   1.000    0.00004    0.00000
        298    11   -1.562025   -1.562025    0.000000   1.000    0.00004    0.00000
        299    11   -1.562025   -1.562025    0.000000   1.000    0.00004    0.00000
        300    11   -1.562025   -1.562025    0.000000   1.000    0.00004    0.00000
        301    11   -1.562025   -1.562025    0.000000   1.000    0.00004    0.00000
        302    11   -1.562025   -1.562025    0.000000   1.000    0.00004    0.00000
        303    11   -1.562025   -1.562025    0.000000   1.000    0.00003    0.00000
        304    11   -1.562025   -1.562025    0.000000   1.000    0.00003    0.00000
        305    11   -1.562025   -1.562025    0.000000   1.000    0.00003    0.00000
        306    11   -1.562025   -1.562025    0.000000   1.000    0.00003    0.00000
        307    11   -1.562025   -1.562025    0.000000   1.000    0.00003    0.00000
        308    11   -1.562025   -1.562025    0.000000   1.000    0.00003    0.00000
        309    11   -1.562025   -1.562025    0.000000   1.000    0.00003    0.00000
        310    11   -1.562025   -1.562025    0.000000   1.000    0.00003    0.00000
        311    11   -1.562025   -1.562025    0.000000   1.000    0.00003    0.00000
        312    11   -1.562025   -1.562025    0.000000   1.000    0.00003    0.00000
        313    11   -1.562025   -1.562025    0.000000   1.000    0.00003    0.00000
        314    11   -1.562025   -1.562025    0.000000   1.000    0.00003    0.00000
        315    11   -1.562025   -1.562025    0.000000   1.000    0.00003    0.00000
        316    11   -1.562025   -1.562025    0.000000   1.000    0.00003    0.00000
        317    11   -1.562025   -1.562025    0.000000   1.000    0.00003    0.00000
        318    11   -1.562025   -1.562025    0.000000   1.000    0.00003    0.00000
        319    11   -1.562025   -1.562025    0.000000   1.000    0.00003    0.00000
        320    11   -1.562025   -1.562025    0.000000   1.000    0.00003    0.00000
        321    11   -1.562025   -1.562025    0.000000   1.000    0.00003    0.00000
        322    11   -1.562025   -1.562025    0.000000   1.000    0.00003    0.00000
        323    11   -1.562025   -1.562025    0.000000   1.000    0.00002    0.00000
        324    11   -1.562025   -1.562025    0.000000   1.000    0.00002    0.00000
        325    11   -1.562025   -1.562025    0.000000   1.000    0.00002    0.00000
        326    11   -1.562025   -1.562025    0.000000   1.000    0.00002    0.00000
        327    11   -1.562025   -1.562025    0.000000   1.000    0.00002    0.00000
        328    11   -1.562025   -1.562025    0.000000   1.000    0.00002    0.00000
        329    11   -1.562025   -1.562025    0.000000   1.000    0.00002    0.00000
        330    11   -1.562025   -1.562025    0.000000   1.000    0.00002    0.00000
        331    11   -1.562025   -1.562025    0.000000   1.000    0.00002    0.00000
        332    11   -1.562025   -1.562025    0.000000   1.000    0.00002    0.00000
        333    11   -1.562025   -1.562025    0.000000   1.000    0.00002    0.00000
        334    11   -1.562025   -1.562025    0.000000   1.000    0.00002    0.00000
        335    11   -1.562025   -1.562025    0.000000   1.000    0.00002    0.00000
        336    11   -1.562025   -1.562025    0.000000   1.000    0.00002    0.00000
        337    11   -1.562025   -1.562025    0.000000   1.000    0.00002    0.00000
        338    11   -1.562025   -1.562025    0.000000   1.000    0.00002    0.00000
        339    11   -1.562025   -1.562025    0.000000   1.000    0.00002    0.00000
        340    11   -1.562025   -1.562025    0.000000   1.000    0.00002    0.00000
        341    11   -1.562025   -1.562025    0.000000   1.000    0.00002    0.00000
        342    11   -1.562025   -1.562025    0.000000   1.000    0.00002    0.00000
        343    11   -1.562025   -1.562025    0.000000   1.000    0.00002    0.00000
        344    11   -1.562025   -1.562025    0.000000   1.000    0.00002    0.00000
        345    11   -1.562025   -1.562025    0.000000   1.000    0.00002    0.00000
        346    11   -1.562025   -1.562025    0.000000   1.000    0.00002    0.00000
        347    11   -1.562025   -1.562025    0.000000   1.000    0.00002    0.00000
        348    11   -1.562025   -1.562025    0.000000   1.000    0.00002    0.00000
        349    11   -1.562025   -1.562025    0.000000   1.000    0.00002    0.00000
        350    11   -1.562025   -1.562025    0.000000   1.000    0.00002    0.00000
        351    11   -1.562025   -1.562025    0.000000   1.000    0.00002    0.00000
        352    11   -1.562025   -1.562025    0.000000   1.000    0.00002    0.00000
        353    11   -1.562025   -1.562025    0.000000   1.000    0.00001    0.00000
        354    11   -1.562025   -1.562025    0.000000   1.000    0.00001    0.00000
        355    11   -1.562025   -1.562025    0.000000   1.000    0.00001    0.00000
        356    11   -1.562025   -1.562025    0.000000   1.000    0.00001    0.00000
        357    11   -1.562025   -1.562025    0.000000   1.000    0.00001    0.00000
        358    11   -1.562025   -1.562025    0.000000   1.000    0.00001    0.00000
        359    11   -1.562025   -1.562025    0.000000   1.000    0.00001    0.00000
        360    11   -1.562025   -1.562025    0.000000   1.000    0.00001    0.00000
        361    11   -1.562025   -1.562025    0.000000   1.000    0.00001    0.00000
        362    11   -1.562025   -1.562025    0.000000   1.000    0.00001    0.00000
        363    11   -1.562025   -1.562025    0.000000   1.000    0.00001    0.00000
        364    11   -1.562025   -1.562025    0.000000   1.000    0.00001    0.00000
        365    11   -1.562025   -1.562025    0.000000   1.000    0.00001    0.00000
        366    11   -1.562025   -1.562025    0.000000   1.000    0.00001    0.00000
        367    11   -1.562025   -1.562025    0.000000   1.000    0.00001    0.00000
        368    11   -1.562025   -1.562025    0.000000   1.000    0.00001    0.00000
        369    11   -1.562025   -1.562025    0.000000   1.000    0.00001    0.00000
        370    11   -1.562025   -1.562025    0.000000   1.000    0.00001    0.00000
        371    11   -1.562025   -1.562025    0.000000   1.000    0.00001    0.00000
        372    11   -1.562025   -1.562025    0.000000   1.000    0.00001    0.00000
        373    11   -1.562025   -1.562025    0.000000   1.000    0.00001    0.00000
        374    11   -1.562025   -1.562025    0.000000   1.000    0.00001    0.00000
        375    11   -1.562025   -1.562025    0.000000   1.000    0.00001    0.00000
        376    11   -1.562025   -1.562025    0.000000   1.000    0.00001    0.00000
        377    11   -1.562025   -1.562025    0.000000   1.000    0.00001    0.00000

      v2RDM iterations converged!

      v2RDM total spin [S(S+1)]:             0.750000
    * v2RDM total energy:             -1.562024991118


 # Natural Orbital Occupation Numbers (alpha) #
 Irrep: 1
      1:  0.9999464
      2:  0.9690861
      3:  0.0309676

 Irrep: 2


 # Natural Orbital Occupation Numbers (beta) #
 Irrep: 1
      1:  0.9690324
      2:  0.0309139
      3:  0.0000537

 Irrep: 2


  ==> Iteration count <==

      Microiterations:                    4121
      Macroiterations:                     378
      Orbital optimization steps:            0

  ==> Wall time <==

      Microiterations:                    0.10 s
      Macroiterations:                    0.08 s
      Orbital optimization:               0.00 s
      Total:                              0.20 s


*** tstop() called on psinet at Thu Nov 23 03:50:18 2017
Module time:
	user time   =       0.20 seconds =       0.00 minutes
	system time =       0.01 seconds =       0.00 minutes
	total time  =          0 seconds =       0.00 minutes
Total time:
	user time   =       0.39 seconds =       0.01 minutes
	system time =       0.02 seconds =       0.00 minutes
	total time  =          0 seconds =       0.00 minutes

*** tstart() called on psinet
*** at Thu Nov 23 03:50:18 2017

   => Loading Basis Set <=

    Name: STO-3G
    Role: ORBITAL
    Keyword: BASIS
    atoms 1-3 entry H          line    19 file /home/psilocaluser/gits/hrw-ecp/objdir16/stage/home/psilocaluser/gits/hrw-ecp/install-psi4/share/psi4/basis/sto-3g.gbs 


         ---------------------------------------------------------
                                   SCF
            by Justin Turney, Rob Parrish, Andy Simmonett
                             and Daniel Smith
                             ROHF Reference
                        1 Threads,    500 MiB Core
         ---------------------------------------------------------

  ==> Geometry <==

    Molecular point group: cs
    Full point group: Cs

    Geometry (in Angstrom), charge = 0, multiplicity = 2:

       Center              X                  Y                   Z               Mass       
    ------------   -----------------  -----------------  -----------------  -----------------
           H          0.666666666667     0.333333333333     0.000000000000     1.007825032070
           H          0.666666666667    -0.666666666667     0.000000000000     1.007825032070
           H         -1.333333333333     0.333333333333     0.000000000000     1.007825032070

  Running in cs symmetry.

  Rotational constants: A =     35.98571  B =      5.83115  C =      5.01802 [cm^-1]
  Rotational constants: A = 1078824.39973  B = 174813.35711  C = 150436.53082 [MHz]
  Nuclear repulsion =    1.030421054995165

  Charge       = 0
  Multiplicity = 2
  Electrons    = 3
  Nalpha       = 2
  Nbeta        = 1

  ==> Algorithm <==

  SCF Algorithm Type is PK.
  DIIS enabled.
  MOM disabled.
  Fractional occupation disabled.
  Guess Type is SAD.
  Energy threshold   = 1.00e-08
  Density threshold  = 1.00e-10
  Integral threshold = 0.00e+00

  ==> Primary Basis <==

  Basis Set: STO-3G
    Blend: STO-3G
    Number of shells: 3
    Number of basis function: 3
    Number of Cartesian functions: 3
    Spherical Harmonics?: true
    Max angular momentum: 0

  ==> Pre-Iterations <==

   -------------------------------------------------------
    Irrep   Nso     Nmo     Nalpha   Nbeta   Ndocc  Nsocc
   -------------------------------------------------------
     A'         3       3       0       0       0       0
     A"         0       0       0       0       0       0
   -------------------------------------------------------
    Total       3       3       2       1       1       1
   -------------------------------------------------------

  ==> Integral Setup <==

  Using in-core PK algorithm.
   Calculation information:
      Number of atoms:                   3
      Number of AO shells:               3
      Number of primitives:              9
      Number of atomic orbitals:         3
      Number of basis functions:         3

      Integral cutoff                 1.00e-12
      Number of threads:                 1

  Performing in-core PK
  Using 42 doubles for integral storage.
  We computed 21 shell quartets total.
  Whereas there are 21 unique shell quartets.
  ==> DiskJK: Disk-Based J/K Matrices <==

    J tasked:                  Yes
    K tasked:                  Yes
    wK tasked:                  No
    Memory (MB):               375
    Schwarz Cutoff:          1E-12

    OpenMP threads:              1
  Minimum eigenvalue in the overlap matrix is 5.0189908481E-01.
  Using Symmetric Orthogonalization.

  SCF Guess: Superposition of Atomic Densities via on-the-fly atomic UHF.

  ==> Iterations <==

                        Total Energy        Delta E     RMS |[F,P]|

   @ROHF iter   0:    -1.41417100164035   -1.41417e+00   0.00000e+00 
   @ROHF iter   1:    -0.58141553777446    8.32755e-01   9.35796e-02 
   @ROHF iter   2:    -1.09097542293345   -5.09560e-01   7.86441e-02 DIIS
   @ROHF iter   3:    -1.51925839237198   -4.28283e-01   2.14183e-02 DIIS
   @ROHF iter   4:    -1.52678424699109   -7.52585e-03   2.98101e-03 DIIS
   @ROHF iter   5:    -1.52692269024700   -1.38443e-04   9.26907e-05 DIIS
   @ROHF iter   6:    -1.52692281324261   -1.22996e-07   8.84695e-06 DIIS
   @ROHF iter   7:    -1.52692281438236   -1.13974e-09   4.84250e-07 DIIS
   @ROHF iter   8:    -1.52692281438612   -3.76010e-12   4.35683e-10 DIIS
   @ROHF iter   9:    -1.52692281438612    0.00000e+00   2.22402e-12 DIIS

  ==> Post-Iterations <==

    Orbital Energies (a.u.)
    -----------------------

    Doubly Occupied:                                                      

       1Ap    -0.490236  

    Singly Occupied:                                                      

       2Ap    -0.064297  

    Virtual:                                                              

       3Ap     0.457501  

    Final Occupation by Irrep:
             Ap   App 
    DOCC [     1,    0 ]
    SOCC [     1,    0 ]

  Energy converged.

  @ROHF Final Energy:    -1.52692281438612

   => Energetics <=

    Nuclear Repulsion Energy =              1.0304210549951651
    One-Electron Energy =                  -3.6846887642415758
    Two-Electron Energy =                   1.1273448948602929
    Total Energy =                         -1.5269228143861180



Properties will be evaluated at   0.000000,   0.000000,   0.000000 Bohr

Properties computed using the SCF density matrix

  Nuclear Dipole Moment: (a.u.)
     X:     0.0000      Y:     0.0000      Z:     0.0000

  Electronic Dipole Moment: (a.u.)
     X:     0.0228      Y:    -0.0018      Z:     0.0000

  Dipole Moment: (a.u.)
     X:     0.0228      Y:    -0.0018      Z:     0.0000     Total:     0.0229

  Dipole Moment: (Debye)
     X:     0.0579      Y:    -0.0046      Z:     0.0000     Total:     0.0581


*** tstop() called on psinet at Thu Nov 23 03:50:19 2017
Module time:
	user time   =       0.21 seconds =       0.00 minutes
	system time =       0.01 seconds =       0.00 minutes
	total time  =          1 seconds =       0.02 minutes
Total time:
	user time   =       0.61 seconds =       0.01 minutes
	system time =       0.03 seconds =       0.00 minutes
	total time  =          1 seconds =       0.02 minutes
 MINTS: Wrapper to libmints.
   by Justin Turney

   Calculation information:
      Number of threads:                 1
      Number of atoms:                   3
      Number of AO shells:               3
      Number of SO shells:               3
      Number of primitives:              9
      Number of atomic orbitals:         3
      Number of basis functions:         3

      Number of irreps:                  2
      Integral cutoff                 0.00e+00
      Number of functions per irrep: [   3    0 ]

 OEINTS: Overlap, kinetic, potential, dipole, and quadrupole integrals
         stored in file 35.

      Computing two-electron integrals...done
      Computed 21 non-zero two-electron integrals.
        Stored in file 33.


         ---------------------------------------------------------
                          Configuration Interaction
                            (a 'D E T C I' module)

                 C. David Sherrill, Daniel G. A. Smith, and
                              Matt L. Leininger
         ---------------------------------------------------------

Warning: iopen=0,opentype!=closed. Making iopen=1

   ==> Parameters <==

    EX LEVEL       =        3      H0 BLOCKSIZE  =     1000
    VAL EX LEVEL   =        0      H0 GUESS SIZE =     1000
    H0COUPLINGSIZE =        0      H0 COUPLING   =       NO
    MAXITER        =       24      NUM PRINT     =       20
    NUM ROOTS      =        1      ICORE         =        1
    PRINT LVL      =        1      FCI           =      YES
    R CONV         = 1.00e-04      MIXED         =      YES
    E CONV         = 1.00e-06      MIXED4        =      YES
    R4S            =       NO      REPL OTF      =       NO
    DIAG METHOD    =      SEM      FOLLOW ROOT   =        0
    PRECONDITIONER = DAVIDSON      UPDATE        = DAVIDSON
    S              =   0.5000      Ms0           =       NO
    GUESS VECTOR   =  H0BLOCK      OPENTYPE      = HIGHSPIN
    COLLAPSE SIZE  =        1      HD AVG        = EVANGELISTI
    MAX NUM VECS   =       25      REF SYM       =     AUTO
    IOPEN        =      YES

    EX ALLOW       =  1  1  1 
    STATE AVERAGE  =  0(1.00) 

   ==> CI Orbital and Space information <==

   ------------------------------------------
               Space    Total    A'    A"
   ------------------------------------------
                 Nso        3     3     0
                 Nmo        3     3     0
               Ndocc        1     1     0
               Nsocc        1     1     0
   ------------------------------------------
                 CI Spaces
   ------------------------------------------
        Dropped DOCC        0     0     0
              Active        3     3     0
        Dropped UOCC        0     0     0
   ------------------------------------------

   ==> Setting up CI strings <==

    There are 3 alpha and 3 beta strings
    The CI space requires 9 (9.00E+00) determinants and 1 blocks

   ==> Transforming CI integrals <==

	Presorting SO-basis two-electron integrals.
	Sorting File: SO Ints (nn|nn) nbuckets = 1
	Transforming the one-electron integrals and constructing Fock matrices
	Starting first half-transformation.
	Sorting half-transformed integrals.
	First half integral transformation complete.
	Starting second half-transformation.
	Two-electron integral transformation complete.

   ==> Starting CI iterations <==

    H0 Block Eigenvalue =  -1.56202496

    Simultaneous Expansion Method (Block Davidson Method)
    Using 1 initial trial vectors

     Iter   Root       Total Energy       Delta E      C RMS

   @CI  0:     0     -1.562024958773   -2.5924E+00   2.3794E-15  
    Warning: Norm of correction (root 0) is < 1.0E-13
   @CI  1:     0     -1.562024958773   0.0000E+00   1.4924E-14 c

   ==> Energetics <==

    SCF energy =           -1.526922814386118
    Total CI energy =      -1.562024958772617

   ==> FCI root 0 information <==

    FCI Root 0 energy =    -1.562024958772617

   The 9 most important determinants:

    *   1   -0.984351  (    0,    0)  1ApX 2ApA 
    *   2   -0.173416  (    2,    2)  2ApA 3ApX 
    *   3    0.026967  (    1,    2)  1ApA 3ApX 
    *   4    0.009765  (    2,    1)  2ApX 3ApA 
    *   5   -0.008954  (    1,    1)  1ApA 2ApB 3ApA 
    *   6   -0.006025  (    0,    1)  1ApA 2ApX 
    *   7   -0.004764  (    0,    2)  1ApA 2ApA 3ApB 
    *   8   -0.004190  (    2,    0)  1ApB 2ApA 3ApA 
    *   9    0.000099  (    1,    0)  1ApX 3ApA 

		 "A good bug is a dead bug" 

			 - Starship Troopers

		 "I didn't write FORTRAN.  That's the problem."

			 - Edward Valeev
	v2RDM vs full CI..................................................PASSED

*** Psi4 exiting successfully. Buy a developer a beer!
