    -----------------------------------------------------------------------
          Psi4: An Open-Source Ab Initio Electronic Structure Package
                              Psi4 0.4.190 Driver

                          Git: Rev {test_ref_refresh} 9b1b239 dirty

    J. M. Turney, A. C. Simmonett, R. M. Parrish, E. G. Hohenstein,
    F. A. Evangelista, J. T. Fermann, B. J. Mintz, L. A. Burns, J. J. Wilke,
    M. L. Abrams, N. J. Russ, M. L. Leininger, C. L. Janssen, E. T. Seidl,
    W. D. Allen, H. F. Schaefer, R. A. King, E. F. Valeev, C. D. Sherrill,
    and T. D. Crawford, WIREs Comput. Mol. Sci. 2, 556-565 (2012)
    (doi: 10.1002/wcms.93)

                         Additional Contributions by
    A. E. DePrince, U. Bozkaya, A. Yu. Sokolov, D. G. A. Smith, R. Di Remigio,
    R. M. Richard, J. F. Gonthier, H. R. McAlexander, M. Saitow, and
    B. P. Pritchard
    -----------------------------------------------------------------------


    Psi4 started on: Mon Apr  4 10:20:44 2016

    Process ID:   4485
    PSI4DATADIR: /home/dsmith/Gits/dgas_psi/share
    Memory level set to 256.000 MB

  ==> Input File <==

--------------------------------------------------------------------------
#! RHF-CC2-LR/cc-pVDZ dynamic polarizabilities of HOF molecule.

memory 250 mb

molecule hof {
  0 1
  O
  H 1 0.97
  F 1 0.97 2 103.0
}

set {
  basis "cc-pVDZ"
  omega [0.05, 0.1, au]
}

property('cc2',properties=['polarizability'])
--------------------------------------------------------------------------

  Memory set to 250.000 MiB by Python script.

*** tstart() called on ds1.sherrill.chemistry.gatech.edu
*** at Mon Apr  4 10:20:45 2016


         ---------------------------------------------------------
                                   SCF
            by Justin Turney, Rob Parrish, and Andy Simmonett
                              RHF Reference
                        1 Threads,    250 MiB Core
         ---------------------------------------------------------

  ==> Geometry <==

    Molecular point group: cs
    Full point group: Cs

    Geometry (in Angstrom), charge = 0, multiplicity = 1:

       Center              X                  Y                   Z               Mass       
    ------------   -----------------  -----------------  -----------------  -----------------
           O          0.498765585882    -0.087994685081     0.000000000000    15.994914619560
           H          0.498765585882    -1.057994685081     0.000000000000     1.007825032070
           F         -0.446373376960     0.130207837633     0.000000000000    18.998403224000

  Running in cs symmetry.

  Rotational constants: A =     20.68749  B =      1.92124  C =      1.75798 [cm^-1]
  Rotational constants: A = 620195.30933  B =  57597.44674  C =  52702.93313 [MHz]
  Nuclear repulsion =   46.780358486018564

  Charge       = 0
  Multiplicity = 1
  Electrons    = 18
  Nalpha       = 9
  Nbeta        = 9

  ==> Algorithm <==

  SCF Algorithm Type is PK.
  DIIS enabled.
  MOM disabled.
  Fractional occupation disabled.
  Guess Type is CORE.
  Energy threshold   = 1.00e-10
  Density threshold  = 1.00e-10
  Integral threshold = 0.00e+00

  ==> Primary Basis <==

  Basis Set: CC-PVDZ
    Number of shells: 15
    Number of basis function: 33
    Number of Cartesian functions: 35
    Spherical Harmonics?: true
    Max angular momentum: 2

  ==> Pre-Iterations <==

   -------------------------------------------------------
    Irrep   Nso     Nmo     Nalpha   Nbeta   Ndocc  Nsocc
   -------------------------------------------------------
     A'        24      24       0       0       0       0
     A"         9       9       0       0       0       0
   -------------------------------------------------------
    Total      33      33       9       9       9       0
   -------------------------------------------------------

  ==> Integral Setup <==

	Batch   1 pq = [       0,     345] index = [             0,59685]
  ==> DiskJK: Disk-Based J/K Matrices <==

    J tasked:                  Yes
    K tasked:                  Yes
    wK tasked:                  No
    Memory (MB):               178
    Schwarz Cutoff:          1E-12

  Minimum eigenvalue in the overlap matrix is 1.1480370680E-02.
  Using Symmetric Orthogonalization.
  SCF Guess: Core (One-Electron) Hamiltonian.

  ==> Iterations <==

                        Total Energy        Delta E     RMS |[F,P]|

    Occupation by irrep:
             Ap   App 
    DOCC [     8,    1 ]

   @RHF iter   1:  -159.89904023157973   -1.59899e+02   1.86297e-01 
    Occupation by irrep:
             Ap   App 
    DOCC [     7,    2 ]

   @RHF iter   2:  -161.87005148329513   -1.97101e+00   1.86566e-01 DIIS
   @RHF iter   3:  -174.13894840667538   -1.22689e+01   3.35353e-02 DIIS
   @RHF iter   4:  -174.39661973446050   -2.57671e-01   7.21187e-03 DIIS
   @RHF iter   5:  -174.41501903222016   -1.83993e-02   2.83261e-03 DIIS
   @RHF iter   6:  -174.41784395430034   -2.82492e-03   1.01800e-03 DIIS
   @RHF iter   7:  -174.41837758415417   -5.33630e-04   2.85786e-04 DIIS
   @RHF iter   8:  -174.41843172807344   -5.41439e-05   3.69443e-05 DIIS
   @RHF iter   9:  -174.41843311021327   -1.38214e-06   9.02045e-06 DIIS
   @RHF iter  10:  -174.41843319061260   -8.03993e-08   1.67324e-06 DIIS
   @RHF iter  11:  -174.41843319159258   -9.79981e-10   4.36026e-07 DIIS
   @RHF iter  12:  -174.41843319163814   -4.55600e-11   5.42748e-08 DIIS
   @RHF iter  13:  -174.41843319163988   -1.73372e-12   8.22621e-09 DIIS
   @RHF iter  14:  -174.41843319163982    5.68434e-14   1.02056e-09 DIIS
   @RHF iter  15:  -174.41843319163996   -1.42109e-13   2.14465e-10 DIIS
   @RHF iter  16:  -174.41843319163993    2.84217e-14   3.95761e-11 DIIS

  ==> Post-Iterations <==

    Orbital Energies (a.u.)
    -----------------------

    Doubly Occupied:                                                      

       1Ap   -26.330356     2Ap   -20.627725     3Ap    -2.082395  
       4Ap    -1.191294     5Ap    -0.971697     1App   -0.924953  
       6Ap    -0.850984     7Ap    -0.460395     2App   -0.380150  

    Virtual:                                                              

       8Ap     0.192183     9Ap     0.648601    10Ap     0.823611  
       3App    1.119958    11Ap     1.143363    12Ap     1.228844  
      13Ap     1.367722    14Ap     1.461132     4App    1.471205  
       5App    1.535571    15Ap     1.667967    16Ap     1.769476  
      17Ap     2.310638    18Ap     2.700605     6App    2.776264  
      19Ap     3.034541     7App    3.108650    20Ap     3.654401  
      21Ap     3.975079     8App    4.008294    22Ap     4.151682  
       9App    4.827587    23Ap     4.882339    24Ap     5.266360  

    Final Occupation by Irrep:
             Ap   App 
    DOCC [     7,    2 ]

  Energy converged.

  @RHF Final Energy:  -174.41843319163993

   => Energetics <=

    Nuclear Repulsion Energy =             46.7803584860185637
    One-Electron Energy =                -334.7576859761914534
    Two-Electron Energy =                 113.5588942985330192
    DFT Exchange-Correlation Energy =       0.0000000000000000
    Empirical Dispersion Energy =           0.0000000000000000
    PCM Polarization Energy =               0.0000000000000000
    EFP Energy =                            0.0000000000000000
    Total Energy =                       -174.4184331916399060

    Alert: EFP and PCM quantities not currently incorporated into SCF psivars.

Properties will be evaluated at   0.000000,   0.000000,   0.000000 Bohr
  ==> Properties <==


Properties computed using the SCF density matrix

  Nuclear Dipole Moment: (a.u.)
     X:     0.8911      Y:    -1.1151      Z:     0.0000

  Electronic Dipole Moment: (a.u.)
     X:    -1.0103      Y:     0.5113      Z:     0.0000

  Dipole Moment: (a.u.)
     X:    -0.1192      Y:    -0.6037      Z:     0.0000     Total:     0.6154

  Dipole Moment: (Debye)
     X:    -0.3030      Y:    -1.5346      Z:     0.0000     Total:     1.5642


  Saving occupied orbitals to File 180.

*** tstop() called on ds1.sherrill.chemistry.gatech.edu at Mon Apr  4 10:20:45 2016
Module time:
	user time   =       0.12 seconds =       0.00 minutes
	system time =       0.01 seconds =       0.00 minutes
	total time  =          0 seconds =       0.00 minutes
Total time:
	user time   =       0.12 seconds =       0.00 minutes
	system time =       0.01 seconds =       0.00 minutes
	total time  =          0 seconds =       0.00 minutes

*** tstart() called on ds1.sherrill.chemistry.gatech.edu
*** at Mon Apr  4 10:20:45 2016


	Wfn Parameters:
	--------------------
	Wavefunction         = CC2
	Number of irreps     = 2
	Number of MOs        = 33
	Number of active MOs = 33
	AO-Basis             = NONE
	Semicanonical        = false
	Reference            = RHF
	Print Level          = 1

	IRREP	# MOs	# FZDC	# DOCC	# SOCC	# VIRT	# FZVR
	-----	-----	------	------	------	------	------
	 Ap	   24	    0	    7	    0	    17	    0
	 App	   9	    0	    2	    0	    7	    0
	Transforming integrals...
	IWL integrals will be deleted.
	(OO|OO)...
	Presorting SO-basis two-electron integrals.
	Sorting File: SO Ints (nn|nn) nbuckets = 1
	Transforming the one-electron integrals and constructing Fock matrices
	Starting first half-transformation.
	Sorting half-transformed integrals.
	First half integral transformation complete.
	Starting second half-transformation.
	Two-electron integral transformation complete.
	(OO|OV)...
	Starting second half-transformation.
	Two-electron integral transformation complete.
	(OO|VV)...
	Starting second half-transformation.
	Two-electron integral transformation complete.
	(OV|OO)...
	Starting first half-transformation.
	Sorting half-transformed integrals.
	First half integral transformation complete.
	Starting second half-transformation.
	Two-electron integral transformation complete.
	(OV|OV)...
	Starting second half-transformation.
	Two-electron integral transformation complete.
	(OV|VV)...
	Starting second half-transformation.
	Two-electron integral transformation complete.
	(VV|OO)...
	Starting first half-transformation.
	Sorting half-transformed integrals.
	First half integral transformation complete.
	Starting second half-transformation.
	Two-electron integral transformation complete.
	(VV|OV)...
	Starting second half-transformation.
	Two-electron integral transformation complete.
	(VV|VV)...
	Starting second half-transformation.
	Two-electron integral transformation complete.
	Frozen core energy     =      0.00000000000000

	Size of irrep 0 of <ab|cd> integrals:      0.114 (MW) /      0.914 (MB)
	Size of irrep 1 of <ab|cd> integrals:      0.057 (MW) /      0.453 (MB)
	Total:                                     0.171 (MW) /      1.367 (MB)

	Size of irrep 0 of <ia|bc> integrals:      0.045 (MW) /      0.360 (MB)
	Size of irrep 1 of <ia|bc> integrals:      0.020 (MW) /      0.158 (MB)
	Total:                                     0.065 (MW) /      0.518 (MB)

	Size of irrep 0 of tijab amplitudes:       0.018 (MW) /      0.143 (MB)
	Size of irrep 1 of tijab amplitudes:       0.007 (MW) /      0.053 (MB)
	Total:                                     0.025 (MW) /      0.197 (MB)

	Nuclear Rep. energy          =     46.78035848601856
	SCF energy                   =   -174.41843319163993
	One-electron energy          =   -334.75768597520073
	Two-electron energy          =    113.55889429754230
	Reference energy             =   -174.41843319163988

*** tstop() called on ds1.sherrill.chemistry.gatech.edu at Mon Apr  4 10:20:45 2016
Module time:
	user time   =       0.04 seconds =       0.00 minutes
	system time =       0.05 seconds =       0.00 minutes
	total time  =          0 seconds =       0.00 minutes
Total time:
	user time   =       0.16 seconds =       0.00 minutes
	system time =       0.06 seconds =       0.00 minutes
	total time  =          0 seconds =       0.00 minutes

*** tstart() called on ds1.sherrill.chemistry.gatech.edu
*** at Mon Apr  4 10:20:45 2016

            **************************
            *                        *
            *        CCENERGY        *
            *                        *
            **************************

    Nuclear Rep. energy (wfn)     =   46.780358486018564
    SCF energy          (wfn)     = -174.418433191639934
    Reference energy    (file100) = -174.418433191639878

    Input parameters:
    -----------------
    Wave function   =      CC2
    Reference wfn   =     RHF
    Brueckner       =     No
    Memory (Mbytes) =     250.0
    Maxiter         =     50
    R_Convergence   =     1.0e-07
    E_Convergence   =     1.0e-08
    Restart         =     Yes
    DIIS            =     Yes
    AO Basis        =     NONE
    ABCD            =     NEW
    Cache Level     =     2
    Cache Type      =     LOW
    Print Level     =     1
    Num. of threads =     1
    # Amps to Print =     10
    Print MP2 Amps? =     No
    Analyze T2 Amps =     No
    Print Pair Ener =     No
    Local CC        =     No
    SCS-MP2         =     False
    SCSN-MP2        =     False
    SCS-CCSD        =     False

MP2 correlation energy -0.3566362484085808
                Solving CC Amplitude Equations
                ------------------------------
  Iter             Energy              RMS        T1Diag      D1Diag    New D1Diag    D2Diag
  ----     ---------------------    ---------   ----------  ----------  ----------   --------
     0        -0.356636248408581    0.000e+00    0.000000    0.000000    0.000000    0.109615
     1        -0.356563800703615    1.814e-02    0.004275    0.011894    0.011894    0.109615
     2        -0.357908445072726    4.538e-03    0.004855    0.013947    0.013947    0.110755
     3        -0.358105639616912    2.649e-03    0.005471    0.016723    0.016723    0.111000
     4        -0.358083336227724    1.020e-03    0.005718    0.018168    0.018168    0.111065
     5        -0.358082694520140    4.248e-04    0.005833    0.018902    0.018902    0.111088
     6        -0.358084027899936    6.450e-05    0.005837    0.018941    0.018941    0.111090
     7        -0.358084024407914    1.720e-05    0.005838    0.018948    0.018948    0.111091
     8        -0.358084006294545    4.378e-06    0.005838    0.018944    0.018944    0.111092
     9        -0.358083999077817    1.096e-06    0.005838    0.018945    0.018945    0.111092
    10        -0.358083997961938    2.215e-07    0.005838    0.018944    0.018944    0.111092
    11        -0.358084000454300    5.827e-08    0.005838    0.018944    0.018944    0.111092

    Iterations converged.


    Largest TIA Amplitudes:
              6   0         0.0155237582
              5   0        -0.0060930423
              7  17        -0.0058282760
              6   2        -0.0058186638
              8  17        -0.0047941812
              6   9         0.0047203698
              3   1         0.0041618307
              7  18         0.0040716182
              4   9        -0.0040084257
              6   1        -0.0039274630

    Largest TIjAb Amplitudes:
      8   8  17  17        -0.0309775827
      6   6   2   2        -0.0284448774
      8   8  18  18        -0.0206998062
      7   7  18  18        -0.0200891520
      7   8  17  17        -0.0186945255
      8   7  17  17        -0.0186945255
      6   6   0   0        -0.0184867584
      7   8  18  18         0.0177215753
      8   7  18  18         0.0177215753
      4   4   6   6        -0.0167721245

    SCF energy       (wfn)                    = -174.418433191639934
    Reference energy (file100)                = -174.418433191639878

    Opposite-spin MP2 correlation energy      =   -0.260477911108528
    Same-spin MP2 correlation energy          =   -0.096158337300052
    MP2 correlation energy                    =   -0.356636248408581
      * MP2 total energy                      = -174.775069440048469
    CC2 correlation energy                    =   -0.358084000454300
      * CC2 total energy                      = -174.776517192094190


*** tstop() called on ds1.sherrill.chemistry.gatech.edu at Mon Apr  4 10:20:45 2016
Module time:
	user time   =       0.11 seconds =       0.00 minutes
	system time =       0.24 seconds =       0.00 minutes
	total time  =          0 seconds =       0.00 minutes
Total time:
	user time   =       0.27 seconds =       0.00 minutes
	system time =       0.30 seconds =       0.01 minutes
	total time  =          0 seconds =       0.00 minutes

*** tstart() called on ds1.sherrill.chemistry.gatech.edu
*** at Mon Apr  4 10:20:45 2016


			**************************
			*                        *
			*         CCHBAR         *
			*                        *
			**************************


*** tstop() called on ds1.sherrill.chemistry.gatech.edu at Mon Apr  4 10:20:45 2016
Module time:
	user time   =       0.01 seconds =       0.00 minutes
	system time =       0.03 seconds =       0.00 minutes
	total time  =          0 seconds =       0.00 minutes
Total time:
	user time   =       0.28 seconds =       0.00 minutes
	system time =       0.33 seconds =       0.01 minutes
	total time  =          0 seconds =       0.00 minutes

*** tstart() called on ds1.sherrill.chemistry.gatech.edu
*** at Mon Apr  4 10:20:45 2016


			**************************
			*        CCLAMBDA        *
			**************************


	Nuclear Rep. energy (wfn)     =   46.780358486018564
	Reference           (wfn)     =                    0
	SCF energy          (wfn)     = -174.418433191639934
	Reference energy    (CC_INFO) = -174.418433191639878
	CC2 energy          (CC_INFO) =   -0.358084000454300
	Total CC2 energy    (CC_INFO) = -174.776517192094190

	Input parameters:
	-----------------
	Maxiter           =     50
	Convergence       = 1.0e-07
	Restart           =     No
	Cache Level       =     2
	Model III         =     No
	DIIS              =     Yes
	AO Basis          =     No
	ABCD              =     NEW
	Local CC          =     No
	Paramaters for left-handed eigenvectors:
	    Irr   Root  Ground-State?    EOM energy        R0
	  1   0     0        Yes       0.0000000000   1.0000000000
	Labels for eigenvector 1:
	LIA 0 -1, Lia 0 -1, LIJAB 0 -1, Lijab 0 -1, LIjAb 0 -1, 2LIjAb - LIjbA 0 -1
	Deleting old CC_LAMBDA data.
	Symmetry of left-hand state: Ap
	Symmetry of left-hand eigenvector: Ap

	          Solving Lambda Equations
	          ------------------------
	Iter     PseudoEnergy or Norm         RMS  
	----     ---------------------     --------
	   0        -0.358163771372514    0.000e+00
	   1        -0.358109760060481    5.948e-03
	   2        -0.357964647902797    8.374e-04
	   3        -0.357946760741245    5.893e-04
	   4        -0.357944455219951    2.526e-04
	   5        -0.357944756037981    8.987e-05
	   6        -0.357944319795371    1.995e-05
	   7        -0.357944217555347    3.708e-06
	   8        -0.357944210317948    8.806e-07
	   9        -0.357944215016534    2.164e-07
	  10        -0.357944215985911    7.381e-08

	Largest LIA Amplitudes:
	          6   0         0.0126078798
	          5   0        -0.0052208611
	          7  17        -0.0051024714
	          6   9         0.0050287297
	          4   2        -0.0044232986
	          4   9        -0.0042061555
	          8  17        -0.0041847803
	          6   2        -0.0040979146
	          3   1         0.0037476747
	          6   1        -0.0031129508

	Largest LIjAb Amplitudes:
	  8   8  17  17        -0.0309537191
	  6   6   2   2        -0.0282735636
	  8   8  18  18        -0.0206652693
	  7   7  18  18        -0.0200413461
	  7   8  17  17        -0.0186782376
	  8   7  17  17        -0.0186782376
	  6   6   0   0        -0.0182203119
	  7   8  18  18         0.0176903716
	  8   7  18  18         0.0176903716
	  4   4   6   6        -0.0167575206

	Iterations converged.

	Overlap <L|e^T> =        0.92825717828

*** tstop() called on ds1.sherrill.chemistry.gatech.edu at Mon Apr  4 10:20:45 2016
Module time:
	user time   =       0.03 seconds =       0.00 minutes
	system time =       0.05 seconds =       0.00 minutes
	total time  =          0 seconds =       0.00 minutes
Total time:
	user time   =       0.31 seconds =       0.01 minutes
	system time =       0.38 seconds =       0.01 minutes
	total time  =          0 seconds =       0.00 minutes

*** tstart() called on ds1.sherrill.chemistry.gatech.edu
*** at Mon Apr  4 10:20:45 2016

			**************************
			*                        *
			*       ccresponse       *
			*                        *
			**************************

	Input parameters:
	-----------------
	Property         =    POLARIZABILITY
	Reference wfn    =      RHF
	Memory (Mbytes)  =  250.0
	Cache Level      =    0
	Print Level      =    1
	Maxiter          =     50
	Convergence      = 1.0e-07
	Restart          =     Allowed
	DIIS             =     Yes
	Model III        =     No
	Linear Model     =     No
	ABCD             =     NEW
	Irrep X          =     Ap
	Irrep Y          =     Ap
	Irrep Z          =    App
	Irrep RX         =    App
	Irrep RY         =    App
	Irrep RZ         =     Ap
	Gauge            =    LENGTH
	Applied field  0 =    0.050 E_h (911.27 nm, 1.361 eV, 10973.73 cm-1)
	Applied field  1 =    0.100 E_h (455.63 nm, 2.721 eV, 21947.46 cm-1)
	Analyze X2 Amps  =    No
	Local CC         =    No


	DPD File2: Mu_X_IA
	DPD Parameters:
	------------------
	pnum = 0   qnum = 1   irrep = 0 
	Irreps = 2

	   Row and column dimensions for DPD Block:
	   ----------------------------------------
	   Irrep: 0 row =     7	col =    17
	   Irrep: 1 row =     2	col =     7

	File 101 DPD File2: Mu_X_IA
	Matrix for Irrep 0
	----------------------------------------

                         0                  1                  2                  3                  4                  5                  6                  7                  8     
                      (  0)              (  1)              (  2)              (  3)              (  4)              (  5)              (  6)              (  7)              (  8)    

    0  (  0) -0.003721802293454 -0.013244293833458 -0.001100708481702 -0.008031693229914  0.001799501963153  0.016512435305789  0.051884377619089  0.001896846701692 -0.005975928126167
    1  (  1)  0.002912301755968 -0.009548561768280  0.007433231789381 -0.014292183752097  0.055209552199791  0.022694231980292  0.022217287685583 -0.010803403368404 -0.016316650582032
    2  (  2) -0.016134513592363 -0.087708971545068  0.024459095882271 -0.021708314571156  0.123764336298838  0.080006011543530  0.173761249220614  0.016186120883425 -0.046400403832570
    3  (  3)  0.065069547196488 -0.115478614446742 -0.044950970494923 -0.084429224962154 -0.363624263562380  0.018719058883004  0.102999598590964 -0.037678567017902  0.038303001607124
    4  (  4) -0.124147662908671  0.341742973924139  0.015909645573557  0.040345589407315 -0.157578680251104 -0.192236552845143  0.057798860413654 -0.029694408595413 -0.027278269514853
    5  (  5)  0.169452528783411  0.606720656696188 -0.174291870867199 -0.133426266269000 -0.253026634494432 -0.139079150478439 -0.177119612816763 -0.075270369308720 -0.062031587255289
    6  (  6) -0.120742284232945  0.109155424540678  0.124091981732393 -0.180976706473216 -0.057549185255400  0.223133142754534 -0.087528585844611 -0.316890166618428  0.378970493599982

                         9                 10                 11                 12                 13                 14                 15                 16     
                      (  9)              ( 10)              ( 11)              ( 12)              ( 13)              ( 14)              ( 15)              ( 16)    

    0  (  0)  0.001997628334883  0.000393870906056  0.002379305039449 -0.015078577793031 -0.020033463163104  0.014681434876450 -0.000496740554619  0.017623115243359
    1  (  1)  0.002259654117026 -0.002618451286772  0.000957392061753 -0.008563230010090 -0.006140820575901  0.002261025023163 -0.002172324562276  0.036378993385525
    2  (  2) -0.001744208922038  0.015856913153496  0.027482342410918 -0.032621553681348 -0.034017140194480  0.018339659468349 -0.004362303226520  0.040557545982560
    3  (  3) -0.020619371663686  0.024811815930530 -0.018483096923171  0.014476466953665  0.033863507025839 -0.021051846551629  0.000980665542432  0.039392843027459
    4  (  4)  0.037609424982682 -0.031548241825401 -0.062802799231020  0.046047876655550 -0.042238313697282  0.006983397609178  0.118714819259234  0.037742734187088
    5  (  5) -0.012572248241092 -0.001663105794541 -0.020847298410499 -0.057563912187745 -0.021295984719574  0.036412057657962 -0.054148381915918  0.108274587366760
    6  (  6)  0.104422757046551 -0.054992785342663 -0.341653817475195  0.047907716918861 -0.083084188225039  0.013380481450895  0.091834291209075  0.016134440551010

	File 101 DPD File2: Mu_X_IA
	Matrix for Irrep 1
	----------------------------------------

                         0                  1                  2                  3                  4                  5                  6     
                      ( 17)              ( 18)              ( 19)              ( 20)              ( 21)              ( 22)              ( 23)    

    0  (  7) -0.009766061643479  0.116742689051153  0.090213327342871  0.042599617717884 -0.065456323248703  0.051573490493094  0.142004847996328
    1  (  8)  0.172606455527286  0.022753261109324  0.023724731420139 -0.597598706043313  0.014804479185368 -0.069452966692907 -0.076236943816873

	DPD File2: Mu_XBAR_MI
	DPD Parameters:
	------------------
	pnum = 0   qnum = 0   irrep = 0 
	Irreps = 2

	   Row and column dimensions for DPD Block:
	   ----------------------------------------
	   Irrep: 0 row =     7	col =     7
	   Irrep: 1 row =     2	col =     2

	File 101 DPD File2: Mu_XBAR_MI
	Matrix for Irrep 0
	----------------------------------------

                         0                  1                  2                  3                  4                  5                  6     
                      (  0)              (  1)              (  2)              (  3)              (  4)              (  5)              (  6)    

    0  (  0)  0.843220797880158 -0.000305364539446  0.018619680576419 -0.019120199547858 -0.027869949296428 -0.026981189828908 -0.011491953613958
    1  (  1) -0.000317407670656 -0.942051138705068 -0.024272509323203 -0.005353381487040  0.006227697180692  0.040915232412636  0.019551383984482
    2  (  2)  0.018560493486594 -0.024147766008832  0.137407133978005  0.553463673670766  0.231143118480386 -0.045674054404622 -0.011551778694736
    3  (  3) -0.019199116816552 -0.005437064903980  0.553243346861712  0.035124539239977  0.500910168566305  1.049633408803276  0.106496754297804
    4  (  4) -0.027955970235570  0.006019809770474  0.231602240535541  0.502469949496168  0.210687098074507  0.044516282191744  0.784527986484389
    5  (  5) -0.026931217491519  0.040822415524704 -0.044585493729157  1.051258117628522  0.044752432807477 -0.314673372153184 -0.519397728086044
    6  (  6) -0.011419489826384  0.019551227477945 -0.011157209552818  0.105588420129061  0.784986602486584 -0.519597115557061 -0.345765712057677

	File 101 DPD File2: Mu_XBAR_MI
	Matrix for Irrep 1
	----------------------------------------

                         0                  1     
                      (  7)              (  8)    

    0  (  7)  0.210975111153813 -0.875030661367650
    1  (  8) -0.874405017252453 -0.346375704569587

	DPD File2: Mu_XBAR_AE
	DPD Parameters:
	------------------
	pnum = 1   qnum = 1   irrep = 0 
	Irreps = 2

	   Row and column dimensions for DPD Block:
	   ----------------------------------------
	   Irrep: 0 row =    17	col =    17
	   Irrep: 1 row =     7	col =     7

	File 101 DPD File2: Mu_XBAR_AE
	Matrix for Irrep 0
	----------------------------------------

                         0                  1                  2                  3                  4                  5                  6                  7                  8     
                      (  0)              (  1)              (  2)              (  3)              (  4)              (  5)              (  6)              (  7)              (  8)    

    0  (  0) -0.904724981417860 -0.481390607124490  0.057910640276078  0.177089196304341 -0.349445137781600  0.028374950280230 -0.358001038255849  0.050511155038553 -0.063506314059751
    1  (  1) -0.483251697797291 -1.078493879879690 -0.386760079767754 -0.092187190281785 -0.952747240834252 -0.180412610399869  0.486444556127846  0.526829302198833 -0.031667361301075
    2  (  2)  0.059839309736566 -0.384421747094828 -0.670657236805686  0.179061943164877  0.417571205956883 -0.211856065177857 -0.359876723677738 -0.030548655286327 -0.164515290988947
    3  (  3)  0.174884955250496 -0.092757567568976  0.180459328646558 -1.193059715244976  0.503221778861456  0.251829367909699 -0.596811124536989 -0.089989823251398 -0.023988775059291
    4  (  4) -0.347964079616849 -0.953302435482022  0.418176649137641  0.503624071883029  0.182507649235448 -0.463451149015607 -0.543505045463773  0.228576602073342  0.457713852047742
    5  (  5)  0.031247401285774 -0.181277282424220 -0.211425143192576  0.251569805811908 -0.463157868556770  0.156629148635587 -0.003988042545465  0.564554952773745 -0.635175790254218
    6  (  6) -0.358353266319478  0.487292208571182 -0.359527935002162 -0.597333300954541 -0.542535699824974 -0.003695001244868  0.794183415409328 -0.068455833454543  0.230040386595702
    7  (  7)  0.046166118836059  0.528965315344491 -0.028765736562275 -0.089259695182536  0.228833186154837  0.564425541299187 -0.068673355793230 -0.831252340058143 -0.312557714866147
    8  (  8) -0.057567872691344 -0.033050312402487 -0.166330129542522 -0.024619126439109  0.457655629403955 -0.636255158586366  0.229997622343733 -0.311969024136086 -0.470811644996493
    9  (  9)  0.036959672994315  0.291210220576255 -0.021564368824175  0.054492752904827  0.108344921565266  0.181760251825307  0.199422129292690  0.132827658319929 -0.011475642141409
   10  ( 10) -0.082198429128794 -0.353724259736761  0.114267360387446 -0.045819010663546 -0.189073169738650 -0.104244106174770 -0.300568728848403 -0.204667827273616 -0.288423571935234
   11  ( 11)  0.177333918657416 -0.193693842576100 -0.328842069455102  0.063010050797508  0.068782783231583 -0.199319850805360  0.038780535744940  0.143656643188888 -0.034088204530023
   12  ( 12) -0.132009881592726  0.087702968457961 -0.027051099756739  0.126527781910526 -0.025526588817121 -0.187899667526417 -0.211399030829541 -0.085438071616983  0.009081815578042
   13  ( 13) -0.112765676913990  0.110727989389568 -0.046684457961127  0.022133743431325 -0.069205033374354 -0.208924312243912 -0.373293889995046  0.071933319874188  0.159424815722745
   14  ( 14)  0.097508958499569 -0.051461340955771  0.002541653321635 -0.073087669690452  0.059086627621850  0.259965540932666  0.245821152756697 -0.059004401535265  0.003221818753300
   15  ( 15)  0.037599189720503  0.006763749017221  0.022146851461814  0.122722878419037 -0.084659367906476  0.046218687203614 -0.088473281368304 -0.135501295005174  0.165309210301976
   16  ( 16)  0.144638745471171  0.052624306387096  0.022122791398865 -0.024682533033091 -0.159989083047565 -0.176551003211041 -0.152004914878626 -0.066735213637661 -0.019402329983318

                         9                 10                 11                 12                 13                 14                 15                 16     
                      (  9)              ( 10)              ( 11)              ( 12)              ( 13)              ( 14)              ( 15)              ( 16)    

    0  (  0)  0.035139289522988 -0.081290484178594  0.182375413178779 -0.132965608206583 -0.111412524609422  0.097369479030315  0.035827570596636  0.145296391110834
    1  (  1)  0.290319418628684 -0.355101697266972 -0.195483688043550  0.089253975565946  0.111906577621536 -0.052468291082808  0.007063880866885  0.053524883779488
    2  (  2) -0.020251648479080  0.114018177640465 -0.330948076210652 -0.026969664887096 -0.047680635745959  0.002954574309216  0.023036168642200  0.022269252088134
    3  (  3)  0.053575003697495 -0.046275685336499  0.062570805405820  0.126634248675143  0.021823570049575 -0.073041147576821  0.123122060105161 -0.024982765108467
    4  (  4)  0.108250391467829 -0.189582306213211  0.068833080019126 -0.026149103728835 -0.069884900359757  0.059777814723662 -0.085035002789325 -0.160657509862908
    5  (  5)  0.184081665237409 -0.103758544842390 -0.200154318776382 -0.187922946481751 -0.209511444640559  0.260300978352825  0.046744000115341 -0.177120023808561
    6  (  6)  0.199017269298210 -0.300363592735888  0.039032864368432 -0.211934308625096 -0.373746128547628  0.246173446500583 -0.088804492542716 -0.152330861864928
    7  (  7)  0.131382623568053 -0.205155573641613  0.144074343813312 -0.085663127189729  0.071555382913000 -0.058776061980136 -0.135416778888964 -0.066898800703797
    8  (  8) -0.009463974637524 -0.287704256058891 -0.034118476610306  0.009088561875103  0.159563309969502  0.003194809444961  0.165339329808482 -0.019467037135674
    9  (  9) -0.752595085402149 -0.407599814703921 -0.013335204065632  0.104970388572179 -0.099414464687086 -0.164701513791811  0.119365782639888 -0.060642149818342
   10  ( 10) -0.407764812906055  0.103074070131377 -0.026715524350564  0.028474921545530 -0.166187435678867  0.165181146627088  0.000537274605148  0.089463592313733
   11  ( 11) -0.014699939701936 -0.027191632818527 -0.536758464227352 -0.060198605815002 -0.003752747064461 -0.140137237480954 -0.793676753429223 -0.023818620989487
   12  ( 12)  0.105031289207034  0.028629762461522 -0.060012002094080 -0.502055665333420 -0.569908767246855 -0.460787650900749  0.137174702683822  0.177714007352283
   13  ( 13) -0.099662007727237 -0.166075071470267 -0.003377773864593 -0.569971034277003  0.011268687971442  0.544506498338167 -0.058187024929163  0.387722136143751
   14  ( 14) -0.164685775118174  0.165061640202803 -0.140335737009677 -0.460713450948311  0.544540435279656 -0.384665084840335  0.175449475934738 -0.367986974599293
   15  ( 15)  0.119393286072301  0.000564762061325 -0.793718249727996  0.137179285338542 -0.058176599336786  0.175419521210178  0.279671793720671  0.036807074515847
   16  ( 16) -0.060714155766686  0.089462498984475 -0.023762234376329  0.177900542510951  0.387948733189428 -0.368155579564523  0.036764546157122  0.654065521039415

	File 101 DPD File2: Mu_XBAR_AE
	Matrix for Irrep 1
	----------------------------------------

                         0                  1                  2                  3                  4                  5                  6     
                      ( 17)              ( 18)              ( 19)              ( 20)              ( 21)              ( 22)              ( 23)    

    0  ( 17) -0.967120657497648 -0.602391294889310 -0.152652640430080 -0.058361927500673 -0.024740591868293 -0.015106272055958  0.059878127114592
    1  ( 18) -0.602793304524928  0.826263324822298  0.141094030226193  0.069860583258098 -0.000289579045974 -0.002295119135873 -0.089827124322514
    2  ( 19) -0.153721165954913  0.141256485190599 -0.968082177867321  0.078653057756643 -0.044774527373699  0.099819762285532  0.063587790661879
    3  ( 20) -0.055677111446511  0.071551578641427  0.077420980085497 -0.485138804834347 -0.007559288146720 -0.046059722793130  0.824278813468158
    4  ( 21) -0.024476444322218 -0.000632410781663 -0.044830459572631 -0.007240763338608 -0.736599004293387 -0.572808638751819 -0.062115377432586
    5  ( 22) -0.015082615500498 -0.001942148956659  0.099689790095061 -0.046124777603922 -0.572814057074055  0.630375866163953 -0.003606497592277
    6  ( 23)  0.059363042566068 -0.089084246597211  0.063522322066095  0.824138058268705 -0.062103193619675 -0.003586674806633  0.362065934647063

	DPD File2: Mu_XBAR_IA
	DPD Parameters:
	------------------
	pnum = 0   qnum = 1   irrep = 0 
	Irreps = 2

	   Row and column dimensions for DPD Block:
	   ----------------------------------------
	   Irrep: 0 row =     7	col =    17
	   Irrep: 1 row =     2	col =     7

	File 101 DPD File2: Mu_XBAR_IA
	Matrix for Irrep 0
	----------------------------------------

                         0                  1                  2                  3                  4                  5                  6                  7                  8     
                      (  0)              (  1)              (  2)              (  3)              (  4)              (  5)              (  6)              (  7)              (  8)    

    0  (  0) -0.003668395166283 -0.012812340532986 -0.001337111706652 -0.007920718800049  0.001761778296054  0.016365712016133  0.051054042615005  0.001979900360427 -0.005860452802502
    1  (  1)  0.002904129741822 -0.009114525300631  0.007345990173146 -0.014300508582870  0.054397307731708  0.022338037824749  0.021941001320747 -0.010908324602193 -0.016298727676078
    2  (  2) -0.014305442198731 -0.079536039924020  0.019756610820296 -0.027454019802828  0.114064822805152  0.079229808715655  0.174948039165632  0.013424645238484 -0.045328208578692
    3  (  3)  0.052007604850802 -0.106629324721658 -0.044958117029162 -0.078294246906678 -0.367479755176332  0.020072586812690  0.115781134469806 -0.020891673427131  0.036246597785628
    4  (  4) -0.124961544714979  0.326212153309461  0.010766017756844  0.041212943929932 -0.155070909798135 -0.189023940341860  0.076874871508835 -0.032453161972032 -0.013380509692794
    5  (  5)  0.180095293895999  0.579062306984394 -0.172539300429629 -0.139292422104838 -0.231709007849804 -0.115497363174649 -0.158804526406167 -0.075761749227491 -0.071037125227351
    6  (  6) -0.123377315950218  0.104939754310337  0.122524580857326 -0.181961394219692 -0.054074067759703  0.207140461550774 -0.084213325037067 -0.308103328618444  0.359693069180326

                         9                 10                 11                 12                 13                 14                 15                 16     
                      (  9)              ( 10)              ( 11)              ( 12)              ( 13)              ( 14)              ( 15)              ( 16)    

    0  (  0)  0.002085156105743  0.000059291662146  0.002287748100748 -0.014766853418180 -0.019569389368254  0.014342971443609 -0.000483536236636  0.017314841763890
    1  (  1)  0.002112774961296 -0.002647316783975  0.000937736013249 -0.008420614210347 -0.006064673394611  0.002238507419481 -0.002123009630006  0.035847671785149
    2  (  2)  0.001215967931439  0.008462110519849  0.023566212869920 -0.031604697078806 -0.031684186166222  0.016612052542575 -0.003564663953417  0.039403384014792
    3  (  3) -0.012699188161964  0.016172635096409 -0.016008852146505  0.010399511671477  0.028198959597961 -0.017589083158378  0.000699359481535  0.036282167284022
    4  (  4)  0.034830369966452 -0.036073917382124 -0.059002275258378  0.042425158504612 -0.040569487919310  0.008074879969660  0.109302644967921  0.035368213741449
    5  (  5) -0.008109915606536 -0.007340519156415 -0.020961938413899 -0.053371259411512 -0.020323352481285  0.034316814424407 -0.051450674622899  0.100364893686450
    6  (  6)  0.097005930907794 -0.056761829018271 -0.310471226851131  0.042900360166579 -0.078182441053881  0.012660572306567  0.087433359753757  0.018433272626221

	File 101 DPD File2: Mu_XBAR_IA
	Matrix for Irrep 1
	----------------------------------------

                         0                  1                  2                  3                  4                  5                  6     
                      ( 17)              ( 18)              ( 19)              ( 20)              ( 21)              ( 22)              ( 23)    

    0  (  7) -0.002903418561882  0.138880540109382  0.090302463923618  0.043098424522478 -0.060371299726074  0.047706346055919  0.131067706482721
    1  (  8)  0.178959020123170  0.013391618493360  0.023852805975013 -0.559515229362638  0.013655867408901 -0.064438423281996 -0.071734784097053

	Computing Mu_X-Perturbed Wave Function (0.050 E_h).
	Iter   Pseudopolarizability       RMS 
	----   --------------------   -----------
	   0         3.783639055071
	   1         4.578683802623    2.134e-01
	   2         5.109923398852    1.125e-01
	   3         5.174801848660    3.533e-02
	   4         5.189309770207    2.333e-02
	   5         5.193111340053    4.532e-03
	   6         5.193149444200    2.017e-03
	   7         5.193012676799    3.152e-04
	   8         5.193049410981    9.958e-05
	   9         5.193045725321    1.584e-05
	  10         5.193047781816    4.184e-06
	  11         5.193048107590    6.522e-07
	  12         5.193048310518    2.032e-07
	-----------------------------------------
	Converged Mu_X-Perturbed Wfn to 6.107e-08

	Computing Mu_X-Perturbed Wave Function (-0.050 E_h).
	Iter   Pseudopolarizability       RMS 
	----   --------------------   -----------
	   0         3.577926293026
	   1         4.285366478795    1.867e-01
	   2         4.721936855855    8.721e-02
	   3         4.756808970731    2.156e-02
	   4         4.761430516174    1.230e-02
	   5         4.762959594919    2.154e-03
	   6         4.762894187008    8.884e-04
	   7         4.762847819079    1.195e-04
	   8         4.762858165992    3.770e-05
	   9         4.762857214438    6.175e-06
	  10         4.762857887297    1.526e-06
	  11         4.762858015456    2.179e-07
	-----------------------------------------
	Converged Mu_X-Perturbed Wfn to 6.087e-08

	DPD File2: Mu_Y_IA
	DPD Parameters:
	------------------
	pnum = 0   qnum = 1   irrep = 0 
	Irreps = 2

	   Row and column dimensions for DPD Block:
	   ----------------------------------------
	   Irrep: 0 row =     7	col =    17
	   Irrep: 1 row =     2	col =     7

	File 101 DPD File2: Mu_Y_IA
	Matrix for Irrep 0
	----------------------------------------

                         0                  1                  2                  3                  4                  5                  6                  7                  8     
                      (  0)              (  1)              (  2)              (  3)              (  4)              (  5)              (  6)              (  7)              (  8)    

    0  (  0)  0.004641409831101  0.002169957590247 -0.005425736388433 -0.005885847436325  0.008519213048769 -0.043695060800473  0.013986430573273 -0.008632758119710  0.020056351944731
    1  (  1) -0.021814856082456  0.012109645881819  0.035192875337824 -0.036720070269414 -0.008738945184039 -0.009720970574145 -0.011254305667754  0.010206282180666 -0.001417226796410
    2  (  2)  0.006617659343239  0.022175519178420  0.004767482950443 -0.059492557055247  0.004692768532809 -0.127468056367224  0.011616781582530  0.035658013863838  0.000066578120407
    3  (  3)  0.052091876346614 -0.023149070945677 -0.124515382169310  0.065527861787951  0.079961854654195 -0.122934269902839  0.062415394665181 -0.090698245532782  0.098667392362342
    4  (  4) -0.416125636878915  0.206175883577030  0.266379275587611  0.203289574644935  0.145099770691614  0.020639941039902  0.123656765819149  0.007144563132368  0.054345345122426
    5  (  5) -0.140369823713583 -0.236326913673865  0.185455411281459 -0.277531975420251 -0.000121997809778  0.016704876267483  0.009124745164434 -0.179399326523198  0.200762342880041
    6  (  6)  0.537697771062740 -0.183930919310760 -0.504512505852277 -0.219342181662691  0.165939784379404  0.066472872397410  0.083092257398244  0.137342759891977 -0.017850263908027

                         9                 10                 11                 12                 13                 14                 15                 16     
                      (  9)              ( 10)              ( 11)              ( 12)              ( 13)              ( 14)              ( 15)              ( 16)    

    0  (  0) -0.006971702798754 -0.002448299514589  0.014441222333930  0.003457588576080  0.004310628734010 -0.004382597207243  0.004323695627583 -0.003752748866845
    1  (  1)  0.036489004659636  0.015387325459467  0.010564228214074 -0.015922221835654  0.004644008912054 -0.014388600593643 -0.004066504708950 -0.010180222568335
    2  (  2)  0.006606799197639  0.001911145245217  0.124674121332121 -0.021022899753475  0.009863026829841 -0.032784247078720 -0.017571623067212 -0.011034666489352
    3  (  3) -0.086232317632471 -0.022086584544442 -0.040369803206638  0.009024133426265  0.009337969537298  0.037259188254103  0.078723060003291 -0.000119950316474
    4  (  4)  0.208897518139041 -0.083030053096992 -0.053087294516927  0.166418697648697 -0.162859526578536 -0.029750632097506  0.021098088591118 -0.056352445383096
    5  (  5) -0.038098502840887  0.077606295244118 -0.254044037301019 -0.062717945755952  0.104491403854504  0.047147175267507  0.079977041159915  0.006305313155186
    6  (  6)  0.135670948870774 -0.157149459012254 -0.041432839737242  0.084089993702471 -0.151673722635038 -0.236324150591802 -0.013958028592968 -0.091532396635977

	File 101 DPD File2: Mu_Y_IA
	Matrix for Irrep 1
	----------------------------------------

                         0                  1                  2                  3                  4                  5                  6     
                      ( 17)              ( 18)              ( 19)              ( 20)              ( 21)              ( 22)              ( 23)    

    0  (  7) -0.021779879966700 -0.053715134896620  0.258086034406553 -0.053597038898182 -0.277488617125754  0.212619779337432 -0.033032717195622
    1  (  8) -0.078829838901283 -0.043123210456502  0.367217446505780  0.103096648493532 -0.113208754036558 -0.304079832562372  0.017701454430593

	DPD File2: Mu_YBAR_MI
	DPD Parameters:
	------------------
	pnum = 0   qnum = 0   irrep = 0 
	Irreps = 2

	   Row and column dimensions for DPD Block:
	   ----------------------------------------
	   Irrep: 0 row =     7	col =     7
	   Irrep: 1 row =     2	col =     2

	File 101 DPD File2: Mu_YBAR_MI
	Matrix for Irrep 0
	----------------------------------------

                         0                  1                  2                  3                  4                  5                  6     
                      (  0)              (  1)              (  2)              (  3)              (  4)              (  5)              (  6)    

    0  (  0) -0.245979114433425  0.000069270114383 -0.004985975627037  0.009796700333899 -0.029476428144195  0.028032397675805 -0.036143720064036
    1  (  1)  0.000072630393648  0.166371827112092  0.003669790829961  0.012915808926426 -0.036426403194160  0.001353278434084  0.033907503696696
    2  (  2) -0.004964578776920  0.003670031298945 -0.041872656611103 -0.270101766058646  0.449921168544383 -0.191291789694411  0.020269460460044
    3  (  3)  0.009850667773340  0.012610817811953 -0.270334152378470  0.144888153278686 -0.280048358322091 -0.427636237551552  0.645517736155348
    4  (  4) -0.029674593671852 -0.036015351203858  0.450629561244490 -0.280223544435627  0.202952425667633  0.257492194846474 -0.280001664281605
    5  (  5)  0.028153818927157  0.001441109647099 -0.191436794800813 -0.427368765663639  0.254531198177551 -0.110435444854294 -0.120218052876170
    6  (  6) -0.036247458883494  0.034151303086189  0.019018531425698  0.643013279363647 -0.268989720910948 -0.120963647427742  0.184552064182784

	File 101 DPD File2: Mu_YBAR_MI
	Matrix for Irrep 1
	----------------------------------------

                         0                  1     
                      (  7)              (  8)    

    0  (  7) -0.088410269907924  0.218913167868506
    1  (  8)  0.218396992187310  0.056681220509596

	DPD File2: Mu_YBAR_AE
	DPD Parameters:
	------------------
	pnum = 1   qnum = 1   irrep = 0 
	Irreps = 2

	   Row and column dimensions for DPD Block:
	   ----------------------------------------
	   Irrep: 0 row =    17	col =    17
	   Irrep: 1 row =     7	col =     7

	File 101 DPD File2: Mu_YBAR_AE
	Matrix for Irrep 0
	----------------------------------------

                         0                  1                  2                  3                  4                  5                  6                  7                  8     
                      (  0)              (  1)              (  2)              (  3)              (  4)              (  5)              (  6)              (  7)              (  8)    

    0  (  0)  2.444349188503379  0.256612975141556  0.389334367988361  0.474604601256176 -0.068577500925395  0.039824298005286  0.205159074826949  0.414778026786248  0.422505864759736
    1  (  1)  0.256589318574818  0.308539013216779  0.432782264644626 -0.037138519334788  0.327369806863981 -0.542241170418775  0.257436496681021  0.084269513107699 -0.179248928685305
    2  (  2)  0.382019410682963  0.433200492196425  1.672522316731664  0.104441581780439 -0.318359315960735  0.379622661762690  0.229523452940530  0.415805732719818  0.023170261315901
    3  (  3)  0.474142844299888 -0.035314029716252  0.103778064694825 -0.645979280971583 -0.053612244083006 -0.234477329880711 -0.044597031659111 -0.113664418598694 -0.447622878677746
    4  (  4) -0.064942647463781  0.326149672484352 -0.320515254044528 -0.055118524426604  0.033887006778517 -0.132134242468684  0.209690946170636  0.214400782794878 -0.399221648039402
    5  (  5)  0.041506830259220 -0.542374461796906  0.378449298518776 -0.233389685819224 -0.131388908904027 -0.046254779693251 -0.152118285990962 -0.575230041204155  0.659389591896113
    6  (  6)  0.208008191314957  0.256445648883536  0.227516851710106 -0.045830399662582  0.209467042998368 -0.152250255512236  0.056005942705569  0.066130413741989 -0.021154297255851
    7  (  7)  0.417144156019311  0.084064069361705  0.415988860968335 -0.113888578171821  0.214361358668669 -0.576008073532308  0.065945398923849  0.744097756254029 -0.078122281780289
    8  (  8)  0.420181754317597 -0.178720235223385  0.023351652736720 -0.446784034248803 -0.399136425242827  0.660101216063032 -0.020729793335541 -0.078044822510312  0.863466571268702
    9  (  9)  0.286193803248154 -0.212406542462366 -0.582577747208042  0.240315443819006  0.121801172178976 -0.313751948684934  0.100663864808204 -0.148753912747011  0.283461629770026
   10  ( 10)  0.081553755854810  0.001684851725201 -0.334251153387339 -0.048142106906951  0.127009054220188  0.155289058306918 -0.172136796941322  0.238411911530823 -0.212190996469609
   11  ( 11) -0.057830673689893 -0.100322636714249  0.001170561128574 -0.041875335939353 -0.156586753019860  0.286683683023947 -0.138920383744207 -0.189667911239896  0.497294751515373
   12  ( 12)  0.085140072984349 -0.080043133781264  0.021103419271256 -0.137116500567259 -0.012493707467445  0.043303857663882  0.069212957199431  0.159092383876950  0.058224817920607
   13  ( 13)  0.046513205429878 -0.018359578306228  0.004206804786260 -0.100105062663451  0.076314964533347 -0.109475411166972  0.136565869003599  0.054875138439266 -0.101019211994337
   14  ( 14)  0.045425099091857 -0.044036259985823 -0.184069463984905  0.137807966602091 -0.025355258717045  0.036810161396913 -0.129037733749889  0.086577978441689 -0.055020463254603
   15  ( 15) -0.018415300064735  0.061342954445929 -0.019984439241986  0.061336100108595 -0.163593076228917 -0.149970527615961 -0.208228540623073 -0.041914558625052  0.098242833262562
   16  ( 16)  0.016905079154183 -0.036354695850861 -0.027253036371676 -0.024530094912664  0.038960057716256 -0.015861611495867  0.080915106301637  0.015832508795006  0.070262380834601

                         9                 10                 11                 12                 13                 14                 15                 16     
                      (  9)              ( 10)              ( 11)              ( 12)              ( 13)              ( 14)              ( 15)              ( 16)    

    0  (  0)  0.288009539069603  0.085996111614772 -0.058926572795396  0.082823676142157  0.049358629920933  0.049855729409241 -0.017945598057725  0.018022938240370
    1  (  1) -0.213133590494264  0.000945617854677 -0.100923409669524 -0.080094750346695 -0.019272199437976 -0.044711829284272  0.061352867175689 -0.036829110771688
    2  (  2) -0.584670517839675 -0.336925136347665  0.000802676620733  0.022726818181321  0.003023452320994 -0.185958946937860 -0.019705776270274 -0.027790216661295
    3  (  3)  0.238816805311209 -0.048832133275521 -0.041168723725149 -0.137153409860382 -0.101125582353813  0.137642211674295  0.061536931596533 -0.024765487181509
    4  (  4)  0.121562771183195  0.127536868093621 -0.156543618222506 -0.012926949355976  0.077029496824327 -0.025476498007103 -0.163624071822832  0.039257556391792
    5  (  5) -0.312669767222059  0.154311510639401  0.287282209607926  0.044273467674484 -0.110346961350591  0.035915016609083 -0.150331718629369 -0.016216885240669
    6  (  6)  0.100086330217691 -0.171785025987070 -0.138810839085884  0.068757086291181  0.137187841436817 -0.129202768972847 -0.208383134934451  0.081217322177335
    7  (  7) -0.148081660372999  0.238715604671026 -0.189813389541451  0.158801161073745  0.054695977177720  0.087068332843702 -0.041988749978320  0.015645443521314
    8  (  8)  0.283499904073901 -0.212357060322732  0.497375662788757  0.058869030061412 -0.100903668857825 -0.055360831109992  0.098219285123450  0.070523432042388
    9  (  9)  1.217652398618843  0.745945221487333  0.168075321266305 -0.502857179474558  0.121817548252696 -0.283990354188739  0.107407066982957 -0.012324283577977
   10  ( 10)  0.745680700950526  0.285557928735406 -0.123734236652542 -0.229542193330607  0.095623897647139 -0.145938201124493  0.072713744799484 -0.037594105262759
   11  ( 11)  0.168100234276174 -0.123560534739529  0.284409103307195  0.007590078937932  0.031718452751265 -0.061257469724456  0.235858736458368  0.082957972948671
   12  ( 12) -0.503226378744886 -0.229619613027810  0.008264970600521  0.292095539854388  0.096721047523334  0.213569178272682 -0.102809596295636 -0.040553713783902
   13  ( 13)  0.121537658056184  0.095534635961185  0.032248811116269  0.096703571142548 -0.045385623824443 -0.132364109369972 -0.006950885063284 -0.091182281779268
   14  ( 14) -0.284847825281159 -0.146187563395985 -0.061743263674810  0.213681271787613 -0.132443608032203  0.067409779756713 -0.027840326770726  0.072398174674859
   15  ( 15)  0.107344712666597  0.072742298893870  0.235844002191564 -0.102685663294524 -0.006815336851849 -0.028098945980584 -0.120052699114635  0.029826063225361
   16  ( 16) -0.012579955264277 -0.037656901043162  0.083330813729299 -0.040665372487116 -0.091244579758290  0.072383970701209  0.029689149724208 -0.203433020475831

	File 101 DPD File2: Mu_YBAR_AE
	Matrix for Irrep 1
	----------------------------------------

                         0                  1                  2                  3                  4                  5                  6     
                      ( 17)              ( 18)              ( 19)              ( 20)              ( 21)              ( 22)              ( 23)    

    0  ( 17)  0.247010635173524  0.200621107605918 -0.516473236075917  0.028425244845913 -0.213581287428816 -0.066791462685062 -0.006108008428872
    1  ( 18)  0.201070790064784 -0.206237119499755 -0.285817575665432 -0.013030660790481 -0.145540632188897 -0.009889333567814  0.021324193063071
    2  ( 19) -0.519519669721902 -0.285351513302825  1.520565742287020 -0.053011071054768  0.608063170345212  0.124887572270908  0.013538781709550
    3  ( 20)  0.028144517760988 -0.013618556644349 -0.051930735234667  0.059309473572676 -0.028545103330364  0.022308821481488 -0.192490354479585
    4  ( 21) -0.211391106981028 -0.146411600683247  0.607345968430572 -0.027778918555834  0.344956510316544  0.179805601286138  0.008895350281853
    5  ( 22) -0.066569807047675 -0.008410879658380  0.124289623989077  0.021917408683847  0.179786337556220 -0.188496778300132 -0.019043826825803
    6  ( 23) -0.005980193863816  0.021158657019782  0.013485611035687 -0.192453586076094  0.008880365518093 -0.018918588522534 -0.135968381080043

	DPD File2: Mu_YBAR_IA
	DPD Parameters:
	------------------
	pnum = 0   qnum = 1   irrep = 0 
	Irreps = 2

	   Row and column dimensions for DPD Block:
	   ----------------------------------------
	   Irrep: 0 row =     7	col =    17
	   Irrep: 1 row =     2	col =     7

	File 101 DPD File2: Mu_YBAR_IA
	Matrix for Irrep 0
	----------------------------------------

                         0                  1                  2                  3                  4                  5                  6                  7                  8     
                      (  0)              (  1)              (  2)              (  3)              (  4)              (  5)              (  6)              (  7)              (  8)    

    0  (  0)  0.005238127923171  0.001976883209707 -0.005514607796155 -0.005781158786380  0.008380852696808 -0.042800683761852  0.013444908882872 -0.008431333869999  0.019480355147625
    1  (  1) -0.021395899316281  0.012025480920155  0.034214409878451 -0.035837483324023 -0.008511671750869 -0.009617190826013 -0.011071171104836  0.009527278540189 -0.001551911111500
    2  (  2) -0.001444952163753  0.020878480711854  0.009789702579182 -0.069102639221718  0.000336527919922 -0.132186954638415  0.008426186026815  0.026652526057731  0.004220620316830
    3  (  3)  0.046205149067586 -0.027330850078652 -0.110089684322571  0.081494231158400  0.085678229101783 -0.128125291278024  0.066100619431317 -0.089543398088018  0.104217597751084
    4  (  4) -0.391239379005742  0.190774582741383  0.228837321433930  0.192776746379424  0.136982035906639  0.023947294639811  0.113448481509716  0.015599827908491  0.045040439195982
    5  (  5) -0.147366692450553 -0.226661950226743  0.174786755791520 -0.279821439783708  0.021066489077227  0.007222991288282  0.001531162377107 -0.178521308320848  0.182574166272473
    6  (  6)  0.535801883703933 -0.148334477423455 -0.461778350197540 -0.205192181781007  0.151480920259609  0.064955339814516  0.072788816789044  0.131866811436152 -0.019674904462215

                         9                 10                 11                 12                 13                 14                 15                 16     
                      (  9)              ( 10)              ( 11)              ( 12)              ( 13)              ( 14)              ( 15)              ( 16)    

    0  (  0) -0.006788983885635 -0.002256743152282  0.014045575099468  0.003408231411995  0.004239328192864 -0.004292338653027  0.004220294112487 -0.003732351207797
    1  (  1)  0.035318238978424  0.014718471696368  0.010254145738465 -0.015455942338708  0.004453263704153 -0.013870055798616 -0.004037871776992 -0.010007127089786
    2  (  2)  0.006047727846989  0.003826887751093  0.111388376689752 -0.018576319244340  0.010253634592542 -0.031311769310368 -0.014687049683045 -0.011932574689931
    3  (  3) -0.081160042773760 -0.013423195870765 -0.037007409551286  0.009205644263491  0.009897187668082  0.034268736684905  0.073599722784925  0.000022517556364
    4  (  4)  0.183152765316137 -0.081954484425730 -0.045243869818980  0.153681914340158 -0.148165709897781 -0.029724699322888  0.017380345066590 -0.050786736130845
    5  (  5) -0.040278934932316  0.073321008244211 -0.227199179552014 -0.058463827442421  0.092103788907213  0.046941846052042  0.073427012260453  0.006155797978372
    6  (  6)  0.155303588041195 -0.148031701069756 -0.035242952525629  0.075442033581624 -0.135720393500292 -0.220349071689842 -0.013200156598760 -0.084556171863050

	File 101 DPD File2: Mu_YBAR_IA
	Matrix for Irrep 1
	----------------------------------------

                         0                  1                  2                  3                  4                  5                  6     
                      ( 17)              ( 18)              ( 19)              ( 20)              ( 21)              ( 22)              ( 23)    

    0  (  7) -0.003710145257450 -0.060914893298129  0.238962937831966 -0.052917718108129 -0.250924340300273  0.197252099357187 -0.030446413512283
    1  (  8) -0.052681813548434 -0.025500356368061  0.343343674574022  0.098984179849256 -0.097145228039772 -0.278373901381549  0.018471591307592

	Computing Mu_Y-Perturbed Wave Function (0.050 E_h).
	Iter   Pseudopolarizability       RMS 
	----   --------------------   -----------
	   0         5.451427963698
	   1         6.864073651233    4.423e-01
	   2         8.537121088638    3.063e-01
	   3         8.880412423920    9.247e-02
	   4         8.981970009541    4.477e-02
	   5         8.988160478467    4.491e-03
	   6         8.989874014087    1.702e-03
	   7         8.989613542180    1.937e-04
	   8         8.989666060349    6.446e-05
	   9         8.989659474881    1.228e-05
	  10         8.989662885324    3.218e-06
	  11         8.989662607702    8.885e-07
	  12         8.989662685298    2.337e-07
	-----------------------------------------
	Converged Mu_Y-Perturbed Wfn to 6.836e-08

	Computing Mu_Y-Perturbed Wave Function (-0.050 E_h).
	Iter   Pseudopolarizability       RMS 
	----   --------------------   -----------
	   0         4.973973286761
	   1         6.113205555711    3.479e-01
	   2         7.239415745522    2.110e-01
	   3         7.367570952779    5.131e-02
	   4         7.397256745733    2.287e-02
	   5         7.399624878468    2.264e-03
	   6         7.400203533978    7.851e-04
	   7         7.400113970523    8.500e-05
	   8         7.400128517083    2.587e-05
	   9         7.400127259940    4.792e-06
	  10         7.400128159973    1.154e-06
	  11         7.400128208139    2.980e-07
	-----------------------------------------
	Converged Mu_Y-Perturbed Wfn to 7.017e-08

	DPD File2: Mu_Z_IA
	DPD Parameters:
	------------------
	pnum = 0   qnum = 1   irrep = 1 
	Irreps = 2

	   Row and column dimensions for DPD Block:
	   ----------------------------------------
	   Irrep: 0 row =     7	col =     7
	   Irrep: 1 row =     2	col =    17

	File 101 DPD File2: Mu_Z_IA
	Matrix for Irrep 0
	----------------------------------------

                         0                  1                  2                  3                  4                  5                  6     
                      ( 17)              ( 18)              ( 19)              ( 20)              ( 21)              ( 22)              ( 23)    

    0  (  0) -0.010786264227607  0.051029121705569  0.002996774149661 -0.011801499652508  0.001272030346786  0.000196386795246  0.002982913344457
    1  (  1) -0.058609642122916 -0.012417796137952 -0.003971629070506 -0.009080237001767 -0.000121216581163 -0.000228819086417 -0.009373422045023
    2  (  2) -0.085132606745262  0.091652844252518  0.007546785426182 -0.142423347447720  0.006996614507000  0.002101811171439 -0.029373123873029
    3  (  3)  0.122069294827557  0.223131794738808 -0.087332576322986  0.050632809097049  0.042739585284693 -0.018430037209952  0.086614055537558
    4  (  4) -0.105541257198904  0.048893483948014  0.328998948971383  0.105191600656706 -0.242811437399935  0.170260520831436  0.054325773971420
    5  (  5) -0.265882703324423  0.058275008258839 -0.023416330912551  0.339635925101292  0.103800330025341 -0.114058298171764  0.058690866550909
    6  (  6)  0.007633904996800  0.022854129186066 -0.377212344969665  0.102347668378078  0.009619099492059  0.297095103077218 -0.012497510093085

	File 101 DPD File2: Mu_Z_IA
	Matrix for Irrep 1
	----------------------------------------

                         0                  1                  2                  3                  4                  5                  6                  7                  8     
                      (  0)              (  1)              (  2)              (  3)              (  4)              (  5)              (  6)              (  7)              (  8)    

    0  (  7) -0.147346254651035  0.175457599253434 -0.221105863744408 -0.029899668790500  0.165686765521516  0.115361651214094 -0.008355477162759  0.328221772389876  0.292080699294117
    1  (  8) -0.122245384895260  0.024589764261549 -0.167118540053241 -0.015807331071245 -0.058301204024065 -0.105293424751714 -0.203866359874441  0.286393937531592  0.189278216281010

                         9                 10                 11                 12                 13                 14                 15                 16     
                      (  9)              ( 10)              ( 11)              ( 12)              ( 13)              ( 14)              ( 15)              ( 16)    

    0  (  7) -0.087279669309248 -0.126770969457211 -0.036329398081744 -0.242965083663691  0.132308978768704  0.116935105193828  0.002357402891631 -0.057494508061180
    1  (  8) -0.205975414885477  0.286653661291145 -0.077914698018557 -0.007558733852259 -0.292258580880861 -0.145533640554438  0.007846000757586  0.090356337533926

	DPD File2: Mu_ZBAR_MI
	DPD Parameters:
	------------------
	pnum = 0   qnum = 0   irrep = 1 
	Irreps = 2

	   Row and column dimensions for DPD Block:
	   ----------------------------------------
	   Irrep: 0 row =     7	col =     2
	   Irrep: 1 row =     2	col =     7

	File 101 DPD File2: Mu_ZBAR_MI
	Matrix for Irrep 0
	----------------------------------------

                         0                  1     
                      (  7)              (  8)    

    0  (  0) -0.043806358681169  0.036060474291385
    1  (  1) -0.036237477781967 -0.050380116239966
    2  (  2)  0.528556746776418  0.015312702113637
    3  (  3)  0.017543923660050 -0.564770701809830
    4  (  4)  0.085770632416123 -0.070352835397709
    5  (  5)  0.252251823093179  0.175908232143098
    6  (  6)  0.061057351942794  0.095121683149609

	File 101 DPD File2: Mu_ZBAR_MI
	Matrix for Irrep 1
	----------------------------------------

                         0                  1                  2                  3                  4                  5                  6     
                      (  0)              (  1)              (  2)              (  3)              (  4)              (  5)              (  6)    

    0  (  7) -0.044054911302025 -0.036479597188537  0.528364323026526  0.018654847190466  0.085504385999170  0.251918005512162  0.059561000098825
    1  (  8)  0.036061436667038 -0.050608041333100  0.015493437437621 -0.562766195903385 -0.071550710914081  0.175112950177731  0.095210468869178

	DPD File2: Mu_ZBAR_AE
	DPD Parameters:
	------------------
	pnum = 1   qnum = 1   irrep = 1 
	Irreps = 2

	   Row and column dimensions for DPD Block:
	   ----------------------------------------
	   Irrep: 0 row =    17	col =     7
	   Irrep: 1 row =     7	col =    17

	File 101 DPD File2: Mu_ZBAR_AE
	Matrix for Irrep 0
	----------------------------------------

                         0                  1                  2                  3                  4                  5                  6     
                      ( 17)              ( 18)              ( 19)              ( 20)              ( 21)              ( 22)              ( 23)    

    0  (  0)  0.599492926085296  0.016944838892035 -0.049525459141797  0.100972101667998 -0.178580201304252 -0.094326226649313 -0.045747752482413
    1  (  1) -0.102945612431174  0.497784743166701  0.079284969009864 -0.089541103410224  0.095748352778511  0.042949245994316  0.100250345288572
    2  (  2)  0.313657864262261 -0.236278327201138  0.290961506724157  0.013419795150003  0.277336739031730  0.128348816495933 -0.035327401675358
    3  (  3) -0.120325246937544 -0.088559168090733 -0.285391167057188 -0.049891283646137 -0.018561032489200 -0.010548603713691  0.045552591890169
    4  (  4) -0.090292582292065  0.031988950572488 -0.030554195280564 -0.062944039615811 -0.035699351348941 -0.017818519865524 -0.131974121267831
    5  (  5) -0.142723810323045  0.223843815635053  0.027118601831051  0.024319772556339  0.028473030333009  0.007320473093384 -0.162219590550262
    6  (  6) -0.066985417398016  0.243676295765411  0.020129412622768  0.114008117749557 -0.012475078831304  0.011235954081938 -0.233936713990419
    7  (  7) -0.672868941009730 -0.001853137901952 -0.095220928731664 -0.058128752968566 -0.061065016386979 -0.043290454983611  0.019403773775040
    8  (  8) -0.435271824287510  0.058549264656369 -0.132116126666766 -0.111201788437214 -0.084825374260087  0.018801919993285  0.051091062176884
    9  (  9)  0.039944076144183  0.175340048203662  0.139163298395377 -0.022173411258961  0.000365321885667 -0.012754391851557 -0.034548335031341
   10  ( 10) -0.303177384163519 -0.514088637788796 -0.056516981053119  0.034937349198021 -0.040321181704114 -0.017926771834864  0.053777709446090
   11  ( 11) -0.027215380462198  0.034831442997360  0.033366345417702 -0.018102489801830  0.017132946320275  0.004201375464190 -0.011999983024519
   12  ( 12) -0.308716830430767 -0.002817364545089 -0.037714334350087 -0.077607923456405 -0.025822473982042  0.002911149298873 -0.007333798883256
   13  ( 13) -0.122329491930186  0.113531951748366  0.014740539505355 -0.054034515592980  0.003705871299746 -0.002998998700614 -0.047916671591314
   14  ( 14) -0.097844812777221 -0.119315440423998  0.001431443360873  0.047036484968921 -0.015021374993782  0.001323142322476  0.021961897630275
   15  ( 15) -0.003242762703028  0.016430756973566  0.055811805976126 -0.009331793120889 -0.005823288038187 -0.019372662647996 -0.008188850744534
   16  ( 16) -0.036691573449605  0.103766648926382 -0.016680284522310 -0.061374143639046 -0.002170258576539  0.001091298229438  0.026462767426510

	File 101 DPD File2: Mu_ZBAR_AE
	Matrix for Irrep 1
	----------------------------------------

                         0                  1                  2                  3                  4                  5                  6                  7                  8     
                      (  0)              (  1)              (  2)              (  3)              (  4)              (  5)              (  6)              (  7)              (  8)    

    0  ( 17)  0.599673206556094 -0.100755441173074  0.312340768228105 -0.121534518283925 -0.089528060420494 -0.143020413153730 -0.068277166688431 -0.669216938407825 -0.432785404932330
    1  ( 18)  0.016811442397262  0.497999273155255 -0.236022158461788 -0.088934910854704  0.031152603618465  0.223517733449110  0.243792834689792 -0.002285874863039  0.057750160705952
    2  ( 19) -0.054551068612078  0.080127677028311  0.292433095704926 -0.284599762594708 -0.029521373750206  0.026960516179681  0.021943088469967 -0.096896288911704 -0.133502460309630
    3  ( 20)  0.100205439106938 -0.090570563706518  0.011641370575994 -0.049740047662792 -0.062533218425230  0.025256562828637  0.114039395783110 -0.057387983615429 -0.110139453495174
    4  ( 21) -0.179145836122655  0.095663211514749  0.278285576060744 -0.018385903861106 -0.036516237771718  0.029494908791912 -0.013231879850163 -0.061109904365260 -0.084500890849035
    5  ( 22) -0.088930020020822  0.041950389719503  0.126039600508624 -0.011275186111753 -0.017324541744832  0.005886837573797  0.011661955629923 -0.043052363766995  0.018534681795780
    6  ( 23) -0.046367109802108  0.100427766604717 -0.035408452332164  0.045412115029428 -0.131822569140290 -0.161975812769197 -0.233618389292893  0.019374625698578  0.051049671633475

                         9                 10                 11                 12                 13                 14                 15                 16     
                      (  9)              ( 10)              ( 11)              ( 12)              ( 13)              ( 14)              ( 15)              ( 16)    

    0  ( 17)  0.039213229380772 -0.301887571873571 -0.027587798957616 -0.310782234631611 -0.123514043027796 -0.097495950004111 -0.003206132236430 -0.036784223384133
    1  ( 18)  0.175508318391708 -0.512538772138655  0.034872974342971 -0.001854331461782  0.112460124760393 -0.120158561922593  0.016429219181513  0.104420815523340
    2  ( 19)  0.136546324990915 -0.058283433072333  0.033934775673583 -0.037272898070075  0.015312440229600  0.001543094728740  0.056028804957996 -0.016763238451444
    3  ( 20) -0.022587878343193  0.034658264034951 -0.018470259448908 -0.077507240378816 -0.052906329787461  0.046550007700858 -0.009331013244704 -0.060946526946267
    4  ( 21)  0.001480603011947 -0.040040927740183  0.016923073986177 -0.025750253056903  0.003770488485469 -0.014971027632469 -0.005882015048949 -0.002209269916272
    5  ( 22) -0.011991899862442 -0.017653193738601  0.004311841191178  0.002852948799879 -0.002882273320725  0.001318147381472 -0.019472990321965  0.001097397337351
    6  ( 23) -0.034687652232489  0.053755752203458 -0.011957696158074 -0.007261552128216 -0.047648650915110  0.021861283499312 -0.008169773883283  0.026609485621236

	DPD File2: Mu_ZBAR_IA
	DPD Parameters:
	------------------
	pnum = 0   qnum = 1   irrep = 1 
	Irreps = 2

	   Row and column dimensions for DPD Block:
	   ----------------------------------------
	   Irrep: 0 row =     7	col =     7
	   Irrep: 1 row =     2	col =    17

	File 101 DPD File2: Mu_ZBAR_IA
	Matrix for Irrep 0
	----------------------------------------

                         0                  1                  2                  3                  4                  5                  6     
                      ( 17)              ( 18)              ( 19)              ( 20)              ( 21)              ( 22)              ( 23)    

    0  (  0) -0.010554916754326  0.049876420575131  0.002868131496554 -0.011529104531133  0.001237149787739  0.000191586391254  0.002927833360106
    1  (  1) -0.057491848619216 -0.012072258559297 -0.003748387156482 -0.008809628944977 -0.000102120799228 -0.000222594325452 -0.009204858168190
    2  (  2) -0.092435044688918  0.095538180576376  0.006465723760522 -0.126155584642466  0.007032435072997  0.002018434048584 -0.025501099335076
    3  (  3)  0.121716623545537  0.227189413759881 -0.075531076139681  0.046623878961072  0.037795599501243 -0.017695536020278  0.080787720707878
    4  (  4) -0.098387534386503  0.051699209597987  0.306079029545714  0.095081922692936 -0.220904454651708  0.158337286740614  0.049394593515470
    5  (  5) -0.264029638915570  0.056168294148783 -0.025225503238611  0.308007962738292  0.097351706253726 -0.104944343452361  0.053238313869466
    6  (  6)  0.009713695188497  0.018659793398333 -0.355860592413854  0.095729372671487 -0.001010036217458  0.271500637355522 -0.012389694978735

	File 101 DPD File2: Mu_ZBAR_IA
	Matrix for Irrep 1
	----------------------------------------

                         0                  1                  2                  3                  4                  5                  6                  7                  8     
                      (  0)              (  1)              (  2)              (  3)              (  4)              (  5)              (  6)              (  7)              (  8)    

    0  (  7) -0.152104814866143  0.173064245431617 -0.209979889056584 -0.025241555990062  0.148773413957033  0.112503205185842 -0.000039883499093  0.318390965177675  0.278551639327242
    1  (  8) -0.132384728517222  0.009818044032428 -0.144205086408889 -0.007135571928664 -0.048549338373257 -0.096257754449741 -0.186421628032625  0.278587329665313  0.181735013168391

                         9                 10                 11                 12                 13                 14                 15                 16     
                      (  9)              ( 10)              ( 11)              ( 12)              ( 13)              ( 14)              ( 15)              ( 16)    

    0  (  7) -0.075867988475818 -0.119266353295193 -0.031937968571237 -0.219144437861708  0.125984199880803  0.108400650482262  0.002831984541944 -0.051585836600676
    1  (  8) -0.193757392763342  0.286299204093723 -0.070610252126405 -0.003035970696142 -0.271792110126919 -0.130010374804797  0.007274638248615  0.084496042981460

	Computing Mu_Z-Perturbed Wave Function (0.050 E_h).
	Iter   Pseudopolarizability       RMS 
	----   --------------------   -----------
	   0         2.544372802754
	   1         2.987248335041    1.930e-01
	   2         3.316301944565    1.357e-01
	   3         3.408170655864    7.312e-02
	   4         3.471287864025    4.544e-02
	   5         3.474183499008    8.029e-03
	   6         3.478239747968    3.745e-03
	   7         3.478248681977    4.523e-04
	   8         3.478282529951    1.498e-04
	   9         3.478289124470    3.397e-05
	  10         3.478290255968    1.399e-05
	  11         3.478291056382    3.137e-06
	  12         3.478292015141    8.182e-07
	  13         3.478292383293    2.880e-07
	-----------------------------------------
	Converged Mu_Z-Perturbed Wfn to 7.884e-08

	Computing Mu_Z-Perturbed Wave Function (-0.050 E_h).
	Iter   Pseudopolarizability       RMS 
	----   --------------------   -----------
	   0         2.419841388163
	   1         2.807240775713    1.553e-01
	   2         3.056516853110    9.054e-02
	   3         3.083117393706    3.576e-02
	   4         3.095957727663    1.931e-02
	   5         3.096085014999    3.062e-03
	   6         3.096841189230    1.307e-03
	   7         3.096835109925    1.512e-04
	   8         3.096841443316    4.671e-05
	   9         3.096843434605    8.569e-06
	  10         3.096843825249    3.081e-06
	  11         3.096844230777    6.938e-07
	  12         3.096844424871    1.789e-07
	-----------------------------------------
	Converged Mu_Z-Perturbed Wfn to 5.534e-08

	Computing <<Mu;Mu>_(0.050) tensor.

                 CC2 Dipole Polarizability [(e^2 a0^2)/E_h]:
  -------------------------------------------------------------------------
   Evaluated at omega = 0.050000 E_h (911.27 nm, 1.361 eV, 10973.73 cm-1)
  -------------------------------------------------------------------------

                   0                     1                     2        

    0      4.840179437834869    -1.335442960955970     0.000000000000000
    1     -1.335693259154983     7.807744705831224     0.000000000000000
    2      0.000000000000000     0.000000000000000     3.219925744229733

	alpha_(0.050) =       5.289283295965 a.u.

	DPD File2: Mu_X_IA
	DPD Parameters:
	------------------
	pnum = 0   qnum = 1   irrep = 0 
	Irreps = 2

	   Row and column dimensions for DPD Block:
	   ----------------------------------------
	   Irrep: 0 row =     7	col =    17
	   Irrep: 1 row =     2	col =     7

	File 101 DPD File2: Mu_X_IA
	Matrix for Irrep 0
	----------------------------------------

                         0                  1                  2                  3                  4                  5                  6                  7                  8     
                      (  0)              (  1)              (  2)              (  3)              (  4)              (  5)              (  6)              (  7)              (  8)    

    0  (  0) -0.003721802293454 -0.013244293833458 -0.001100708481702 -0.008031693229914  0.001799501963153  0.016512435305789  0.051884377619089  0.001896846701692 -0.005975928126167
    1  (  1)  0.002912301755968 -0.009548561768280  0.007433231789381 -0.014292183752097  0.055209552199791  0.022694231980292  0.022217287685583 -0.010803403368404 -0.016316650582032
    2  (  2) -0.016134513592363 -0.087708971545068  0.024459095882271 -0.021708314571156  0.123764336298838  0.080006011543530  0.173761249220614  0.016186120883425 -0.046400403832570
    3  (  3)  0.065069547196488 -0.115478614446742 -0.044950970494923 -0.084429224962154 -0.363624263562380  0.018719058883004  0.102999598590964 -0.037678567017902  0.038303001607124
    4  (  4) -0.124147662908671  0.341742973924139  0.015909645573557  0.040345589407315 -0.157578680251104 -0.192236552845143  0.057798860413654 -0.029694408595413 -0.027278269514853
[...]
    4  (  4)  0.183152765316137 -0.081954484425730 -0.045243869818980  0.153681914340158 -0.148165709897781 -0.029724699322888  0.017380345066590 -0.050786736130845
    5  (  5) -0.040278934932316  0.073321008244211 -0.227199179552014 -0.058463827442421  0.092103788907213  0.046941846052042  0.073427012260453  0.006155797978372
    6  (  6)  0.155303588041195 -0.148031701069756 -0.035242952525629  0.075442033581624 -0.135720393500292 -0.220349071689842 -0.013200156598760 -0.084556171863050

	File 101 DPD File2: Mu_YBAR_IA
	Matrix for Irrep 1
	----------------------------------------

                         0                  1                  2                  3                  4                  5                  6     
                      ( 17)              ( 18)              ( 19)              ( 20)              ( 21)              ( 22)              ( 23)    

    0  (  7) -0.003710145257450 -0.060914893298129  0.238962937831966 -0.052917718108129 -0.250924340300273  0.197252099357187 -0.030446413512283
    1  (  8) -0.052681813548434 -0.025500356368061  0.343343674574022  0.098984179849256 -0.097145228039772 -0.278373901381549  0.018471591307592

	Computing Mu_Y-Perturbed Wave Function (0.100 E_h).
	Iter   Pseudopolarizability       RMS 
	----   --------------------   -----------
	   0         5.738315518100
	   1         7.335782072675    5.083e-01
	   2         9.406221154398    3.788e-01
	   3        10.037610186928    1.345e-01
	   4        10.247382296362    6.706e-02
	   5        10.259012137681    6.784e-03
	   6        10.262448982636    2.692e-03
	   7        10.261947931020    3.176e-04
	   8        10.262061439428    1.104e-04
	   9        10.262043891011    2.151e-05
	  10        10.262051304107    5.959e-06
	  11        10.262049998942    1.712e-06
	  12        10.262050018591    4.811e-07
	  13        10.262050289927    1.358e-07
	-----------------------------------------
	Converged Mu_Y-Perturbed Wfn to 5.192e-08

	Computing Mu_Y-Perturbed Wave Function (-0.100 E_h).
	Iter   Pseudopolarizability       RMS 
	----   --------------------   -----------
	   0         4.772069593589
	   1         5.807643802942    3.132e-01
	   2         6.751028904267    1.788e-01
	   3         6.836511400401    4.029e-02
	   4         6.853717342181    1.713e-02
	   5         6.855316364818    1.686e-03
	   6         6.855688010983    5.601e-04
	   7         6.855631156615    5.963e-05
	   8         6.855639514063    1.734e-05
	   9         6.855638896286    3.169e-06
	  10         6.855639397544    7.357e-07
	  11         6.855639448931    1.840e-07
	-----------------------------------------
	Converged Mu_Y-Perturbed Wfn to 4.118e-08

	DPD File2: Mu_Z_IA
	DPD Parameters:
	------------------
	pnum = 0   qnum = 1   irrep = 1 
	Irreps = 2

	   Row and column dimensions for DPD Block:
	   ----------------------------------------
	   Irrep: 0 row =     7	col =     7
	   Irrep: 1 row =     2	col =    17

	File 101 DPD File2: Mu_Z_IA
	Matrix for Irrep 0
	----------------------------------------

                         0                  1                  2                  3                  4                  5                  6     
                      ( 17)              ( 18)              ( 19)              ( 20)              ( 21)              ( 22)              ( 23)    

    0  (  0) -0.010786264227607  0.051029121705569  0.002996774149661 -0.011801499652508  0.001272030346786  0.000196386795246  0.002982913344457
    1  (  1) -0.058609642122916 -0.012417796137952 -0.003971629070506 -0.009080237001767 -0.000121216581163 -0.000228819086417 -0.009373422045023
    2  (  2) -0.085132606745262  0.091652844252518  0.007546785426182 -0.142423347447720  0.006996614507000  0.002101811171439 -0.029373123873029
    3  (  3)  0.122069294827557  0.223131794738808 -0.087332576322986  0.050632809097049  0.042739585284693 -0.018430037209952  0.086614055537558
    4  (  4) -0.105541257198904  0.048893483948014  0.328998948971383  0.105191600656706 -0.242811437399935  0.170260520831436  0.054325773971420
    5  (  5) -0.265882703324423  0.058275008258839 -0.023416330912551  0.339635925101292  0.103800330025341 -0.114058298171764  0.058690866550909
    6  (  6)  0.007633904996800  0.022854129186066 -0.377212344969665  0.102347668378078  0.009619099492059  0.297095103077218 -0.012497510093085

	File 101 DPD File2: Mu_Z_IA
	Matrix for Irrep 1
	----------------------------------------

                         0                  1                  2                  3                  4                  5                  6                  7                  8     
                      (  0)              (  1)              (  2)              (  3)              (  4)              (  5)              (  6)              (  7)              (  8)    

    0  (  7) -0.147346254651035  0.175457599253434 -0.221105863744408 -0.029899668790500  0.165686765521516  0.115361651214094 -0.008355477162759  0.328221772389876  0.292080699294117
    1  (  8) -0.122245384895260  0.024589764261549 -0.167118540053241 -0.015807331071245 -0.058301204024065 -0.105293424751714 -0.203866359874441  0.286393937531592  0.189278216281010

                         9                 10                 11                 12                 13                 14                 15                 16     
                      (  9)              ( 10)              ( 11)              ( 12)              ( 13)              ( 14)              ( 15)              ( 16)    

    0  (  7) -0.087279669309248 -0.126770969457211 -0.036329398081744 -0.242965083663691  0.132308978768704  0.116935105193828  0.002357402891631 -0.057494508061180
    1  (  8) -0.205975414885477  0.286653661291145 -0.077914698018557 -0.007558733852259 -0.292258580880861 -0.145533640554438  0.007846000757586  0.090356337533926

	DPD File2: Mu_ZBAR_MI
	DPD Parameters:
	------------------
	pnum = 0   qnum = 0   irrep = 1 
	Irreps = 2

	   Row and column dimensions for DPD Block:
	   ----------------------------------------
	   Irrep: 0 row =     7	col =     2
	   Irrep: 1 row =     2	col =     7

	File 101 DPD File2: Mu_ZBAR_MI
	Matrix for Irrep 0
	----------------------------------------

                         0                  1     
                      (  7)              (  8)    

    0  (  0) -0.043806358681169  0.036060474291385
    1  (  1) -0.036237477781967 -0.050380116239966
    2  (  2)  0.528556746776418  0.015312702113637
    3  (  3)  0.017543923660050 -0.564770701809830
    4  (  4)  0.085770632416123 -0.070352835397709
    5  (  5)  0.252251823093179  0.175908232143098
    6  (  6)  0.061057351942794  0.095121683149609

	File 101 DPD File2: Mu_ZBAR_MI
	Matrix for Irrep 1
	----------------------------------------

                         0                  1                  2                  3                  4                  5                  6     
                      (  0)              (  1)              (  2)              (  3)              (  4)              (  5)              (  6)    

    0  (  7) -0.044054911302025 -0.036479597188537  0.528364323026526  0.018654847190466  0.085504385999170  0.251918005512162  0.059561000098825
    1  (  8)  0.036061436667038 -0.050608041333100  0.015493437437621 -0.562766195903385 -0.071550710914081  0.175112950177731  0.095210468869178

	DPD File2: Mu_ZBAR_AE
	DPD Parameters:
	------------------
	pnum = 1   qnum = 1   irrep = 1 
	Irreps = 2

	   Row and column dimensions for DPD Block:
	   ----------------------------------------
	   Irrep: 0 row =    17	col =     7
	   Irrep: 1 row =     7	col =    17

	File 101 DPD File2: Mu_ZBAR_AE
	Matrix for Irrep 0
	----------------------------------------

                         0                  1                  2                  3                  4                  5                  6     
                      ( 17)              ( 18)              ( 19)              ( 20)              ( 21)              ( 22)              ( 23)    

    0  (  0)  0.599492926085296  0.016944838892035 -0.049525459141797  0.100972101667998 -0.178580201304252 -0.094326226649313 -0.045747752482413
    1  (  1) -0.102945612431174  0.497784743166701  0.079284969009864 -0.089541103410224  0.095748352778511  0.042949245994316  0.100250345288572
    2  (  2)  0.313657864262261 -0.236278327201138  0.290961506724157  0.013419795150003  0.277336739031730  0.128348816495933 -0.035327401675358
    3  (  3) -0.120325246937544 -0.088559168090733 -0.285391167057188 -0.049891283646137 -0.018561032489200 -0.010548603713691  0.045552591890169
    4  (  4) -0.090292582292065  0.031988950572488 -0.030554195280564 -0.062944039615811 -0.035699351348941 -0.017818519865524 -0.131974121267831
    5  (  5) -0.142723810323045  0.223843815635053  0.027118601831051  0.024319772556339  0.028473030333009  0.007320473093384 -0.162219590550262
    6  (  6) -0.066985417398016  0.243676295765411  0.020129412622768  0.114008117749557 -0.012475078831304  0.011235954081938 -0.233936713990419
    7  (  7) -0.672868941009730 -0.001853137901952 -0.095220928731664 -0.058128752968566 -0.061065016386979 -0.043290454983611  0.019403773775040
    8  (  8) -0.435271824287510  0.058549264656369 -0.132116126666766 -0.111201788437214 -0.084825374260087  0.018801919993285  0.051091062176884
    9  (  9)  0.039944076144183  0.175340048203662  0.139163298395377 -0.022173411258961  0.000365321885667 -0.012754391851557 -0.034548335031341
   10  ( 10) -0.303177384163519 -0.514088637788796 -0.056516981053119  0.034937349198021 -0.040321181704114 -0.017926771834864  0.053777709446090
   11  ( 11) -0.027215380462198  0.034831442997360  0.033366345417702 -0.018102489801830  0.017132946320275  0.004201375464190 -0.011999983024519
   12  ( 12) -0.308716830430767 -0.002817364545089 -0.037714334350087 -0.077607923456405 -0.025822473982042  0.002911149298873 -0.007333798883256
   13  ( 13) -0.122329491930186  0.113531951748366  0.014740539505355 -0.054034515592980  0.003705871299746 -0.002998998700614 -0.047916671591314
   14  ( 14) -0.097844812777221 -0.119315440423998  0.001431443360873  0.047036484968921 -0.015021374993782  0.001323142322476  0.021961897630275
   15  ( 15) -0.003242762703028  0.016430756973566  0.055811805976126 -0.009331793120889 -0.005823288038187 -0.019372662647996 -0.008188850744534
   16  ( 16) -0.036691573449605  0.103766648926382 -0.016680284522310 -0.061374143639046 -0.002170258576539  0.001091298229438  0.026462767426510

	File 101 DPD File2: Mu_ZBAR_AE
	Matrix for Irrep 1
	----------------------------------------

                         0                  1                  2                  3                  4                  5                  6                  7                  8     
                      (  0)              (  1)              (  2)              (  3)              (  4)              (  5)              (  6)              (  7)              (  8)    

    0  ( 17)  0.599673206556094 -0.100755441173074  0.312340768228105 -0.121534518283925 -0.089528060420494 -0.143020413153730 -0.068277166688431 -0.669216938407825 -0.432785404932330
    1  ( 18)  0.016811442397262  0.497999273155255 -0.236022158461788 -0.088934910854704  0.031152603618465  0.223517733449110  0.243792834689792 -0.002285874863039  0.057750160705952
    2  ( 19) -0.054551068612078  0.080127677028311  0.292433095704926 -0.284599762594708 -0.029521373750206  0.026960516179681  0.021943088469967 -0.096896288911704 -0.133502460309630
    3  ( 20)  0.100205439106938 -0.090570563706518  0.011641370575994 -0.049740047662792 -0.062533218425230  0.025256562828637  0.114039395783110 -0.057387983615429 -0.110139453495174
    4  ( 21) -0.179145836122655  0.095663211514749  0.278285576060744 -0.018385903861106 -0.036516237771718  0.029494908791912 -0.013231879850163 -0.061109904365260 -0.084500890849035
    5  ( 22) -0.088930020020822  0.041950389719503  0.126039600508624 -0.011275186111753 -0.017324541744832  0.005886837573797  0.011661955629923 -0.043052363766995  0.018534681795780
    6  ( 23) -0.046367109802108  0.100427766604717 -0.035408452332164  0.045412115029428 -0.131822569140290 -0.161975812769197 -0.233618389292893  0.019374625698578  0.051049671633475

                         9                 10                 11                 12                 13                 14                 15                 16     
                      (  9)              ( 10)              ( 11)              ( 12)              ( 13)              ( 14)              ( 15)              ( 16)    

    0  ( 17)  0.039213229380772 -0.301887571873571 -0.027587798957616 -0.310782234631611 -0.123514043027796 -0.097495950004111 -0.003206132236430 -0.036784223384133
    1  ( 18)  0.175508318391708 -0.512538772138655  0.034872974342971 -0.001854331461782  0.112460124760393 -0.120158561922593  0.016429219181513  0.104420815523340
    2  ( 19)  0.136546324990915 -0.058283433072333  0.033934775673583 -0.037272898070075  0.015312440229600  0.001543094728740  0.056028804957996 -0.016763238451444
    3  ( 20) -0.022587878343193  0.034658264034951 -0.018470259448908 -0.077507240378816 -0.052906329787461  0.046550007700858 -0.009331013244704 -0.060946526946267
    4  ( 21)  0.001480603011947 -0.040040927740183  0.016923073986177 -0.025750253056903  0.003770488485469 -0.014971027632469 -0.005882015048949 -0.002209269916272
    5  ( 22) -0.011991899862442 -0.017653193738601  0.004311841191178  0.002852948799879 -0.002882273320725  0.001318147381472 -0.019472990321965  0.001097397337351
    6  ( 23) -0.034687652232489  0.053755752203458 -0.011957696158074 -0.007261552128216 -0.047648650915110  0.021861283499312 -0.008169773883283  0.026609485621236

	DPD File2: Mu_ZBAR_IA
	DPD Parameters:
	------------------
	pnum = 0   qnum = 1   irrep = 1 
	Irreps = 2

	   Row and column dimensions for DPD Block:
	   ----------------------------------------
	   Irrep: 0 row =     7	col =     7
	   Irrep: 1 row =     2	col =    17

	File 101 DPD File2: Mu_ZBAR_IA
	Matrix for Irrep 0
	----------------------------------------

                         0                  1                  2                  3                  4                  5                  6     
                      ( 17)              ( 18)              ( 19)              ( 20)              ( 21)              ( 22)              ( 23)    

    0  (  0) -0.010554916754326  0.049876420575131  0.002868131496554 -0.011529104531133  0.001237149787739  0.000191586391254  0.002927833360106
    1  (  1) -0.057491848619216 -0.012072258559297 -0.003748387156482 -0.008809628944977 -0.000102120799228 -0.000222594325452 -0.009204858168190
    2  (  2) -0.092435044688918  0.095538180576376  0.006465723760522 -0.126155584642466  0.007032435072997  0.002018434048584 -0.025501099335076
    3  (  3)  0.121716623545537  0.227189413759881 -0.075531076139681  0.046623878961072  0.037795599501243 -0.017695536020278  0.080787720707878
    4  (  4) -0.098387534386503  0.051699209597987  0.306079029545714  0.095081922692936 -0.220904454651708  0.158337286740614  0.049394593515470
    5  (  5) -0.264029638915570  0.056168294148783 -0.025225503238611  0.308007962738292  0.097351706253726 -0.104944343452361  0.053238313869466
    6  (  6)  0.009713695188497  0.018659793398333 -0.355860592413854  0.095729372671487 -0.001010036217458  0.271500637355522 -0.012389694978735

	File 101 DPD File2: Mu_ZBAR_IA
	Matrix for Irrep 1
	----------------------------------------

                         0                  1                  2                  3                  4                  5                  6                  7                  8     
                      (  0)              (  1)              (  2)              (  3)              (  4)              (  5)              (  6)              (  7)              (  8)    

    0  (  7) -0.152104814866143  0.173064245431617 -0.209979889056584 -0.025241555990062  0.148773413957033  0.112503205185842 -0.000039883499093  0.318390965177675  0.278551639327242
    1  (  8) -0.132384728517222  0.009818044032428 -0.144205086408889 -0.007135571928664 -0.048549338373257 -0.096257754449741 -0.186421628032625  0.278587329665313  0.181735013168391

                         9                 10                 11                 12                 13                 14                 15                 16     
                      (  9)              ( 10)              ( 11)              ( 12)              ( 13)              ( 14)              ( 15)              ( 16)    

    0  (  7) -0.075867988475818 -0.119266353295193 -0.031937968571237 -0.219144437861708  0.125984199880803  0.108400650482262  0.002831984541944 -0.051585836600676
    1  (  8) -0.193757392763342  0.286299204093723 -0.070610252126405 -0.003035970696142 -0.271792110126919 -0.130010374804797  0.007274638248615  0.084496042981460

	Computing Mu_Z-Perturbed Wave Function (0.100 E_h).
	Iter   Pseudopolarizability       RMS 
	----   --------------------   -----------
	   0         2.614115930429
	   1         3.092195768706    2.206e-01
	   2         3.459267106156    1.724e-01
	   3         3.649646516539    1.129e-01
	   4         3.822416602289    7.860e-02
	   5         3.839925750077    1.609e-02
	   6         3.853973881136    7.781e-03
	   7         3.854090295991    9.507e-04
	   8         3.854207730924    3.292e-04
	   9         3.854222035318    8.506e-05
	  10         3.854224222325    3.700e-05
	  11         3.854221851827    8.309e-06
	  12         3.854224651660    2.171e-06
	  13         3.854226054668    8.227e-07
	  14         3.854226505950    2.482e-07
	-----------------------------------------
	Converged Mu_Z-Perturbed Wfn to 3.888e-08

	Computing Mu_Z-Perturbed Wave Function (-0.100 E_h).
	Iter   Pseudopolarizability       RMS 
	----   --------------------   -----------
	   0         2.363605864565
	   1         2.728481089808    1.418e-01
	   2         2.946835851427    7.612e-02
	   3         2.962538849486    2.652e-02
	   4         2.968982359660    1.358e-02
	   5         2.968984131654    2.078e-03
	   6         2.969381253885    8.540e-04
	   7         2.969375834019    9.663e-05
	   8         2.969379153763    2.900e-05
	   9         2.969380346136    4.919e-06
	  10         2.969380588921    1.636e-06
	  11         2.969380826478    3.647e-07
	-----------------------------------------
	Converged Mu_Z-Perturbed Wfn to 9.357e-08

	Computing <<Mu;Mu>_(0.100) tensor.

                 CC2 Dipole Polarizability [(e^2 a0^2)/E_h]:
  -------------------------------------------------------------------------
   Evaluated at omega = 0.100000 E_h (455.63 nm, 2.721 eV, 21947.46 cm-1)
  -------------------------------------------------------------------------

                   0                     1                     2        

    0      4.881284209669532    -1.414073771756108     0.000000000000000
    1     -1.414615635479642     8.148801280718647     0.000000000000000
    2      0.000000000000000     0.000000000000000     3.339679326154538

	alpha_(0.100) =       5.456588272181 a.u.

	-------------------------------
	      CC2 Polarizability
	-------------------------------
	    Omega          alpha
	 E_h      nm        a.u.        
	-----   ------ ----------------
	0.050   911.27         5.28928
	0.100   455.63         5.45659

*** tstop() called on ds1.sherrill.chemistry.gatech.edu at Mon Apr  4 10:20:47 2016
Module time:
	user time   =       0.65 seconds =       0.01 minutes
	system time =       0.71 seconds =       0.01 minutes
	total time  =          2 seconds =       0.03 minutes
Total time:
	user time   =       0.96 seconds =       0.02 minutes
	system time =       1.09 seconds =       0.02 minutes
	total time  =          2 seconds =       0.03 minutes

*** PSI4 exiting successfully. Buy a developer a beer!
