
    -----------------------------------------------------------------------
          Psi4: An Open-Source Ab Initio Electronic Structure Package
                               Psi4 1.6a1.dev52 

                         Git: Rev {ccdensity_fix} ecc1908 dirty


    D. G. A. Smith, L. A. Burns, A. C. Simmonett, R. M. Parrish,
    M. C. Schieber, R. Galvelis, P. Kraus, H. Kruse, R. Di Remigio,
    A. Alenaizan, A. M. James, S. Lehtola, J. P. Misiewicz, M. Scheurer,
    R. A. Shaw, J. B. Schriber, Y. Xie, Z. L. Glick, D. A. Sirianni,
    J. S. O'Brien, J. M. Waldrop, A. Kumar, E. G. Hohenstein,
    B. P. Pritchard, B. R. Brooks, H. F. Schaefer III, A. Yu. Sokolov,
    K. Patkowski, A. E. DePrince III, U. Bozkaya, R. A. King,
    F. A. Evangelista, J. M. Turney, T. D. Crawford, C. D. Sherrill,
    J. Chem. Phys. 152(18) 184108 (2020). https://doi.org/10.1063/5.0006002

                            Additional Code Authors
    E. T. Seidl, C. L. Janssen, E. F. Valeev, M. L. Leininger,
    J. F. Gonthier, R. M. Richard, H. R. McAlexander, M. Saitow, X. Wang,
    P. Verma, M. H. Lechner, and A. Jiang

             Previous Authors, Complete List of Code Contributors,
                       and Citations for Specific Modules
    https://github.com/psi4/psi4/blob/master/codemeta.json
    https://github.com/psi4/psi4/graphs/contributors
    http://psicode.org/psi4manual/master/introduction.html#citing-psifour

    -----------------------------------------------------------------------


    Psi4 started on: Monday, 14 February 2022 12:24PM

    Process ID: 4660
    Host:       dhcp189-242.emerson.emory.edu
    PSIDATADIR: /Users/jonathonmisiewicz/psi4/objdir/stage/share/psi4
    Memory:     500.0 MiB
    Threads:    1
    
  ==> Input File <==

--------------------------------------------------------------------------
#! UHF-CCSD(T) cc-pVDZ frozen-core energy for the $^2\Sigma^+$ state of the CN radical, with Z-matrix input.

molecule CN {
  0 2
  C
  N 1 R

  R = 1.175
}

set {
  reference   uhf
  basis       cc-pVDZ
  docc        [4, 0, 1, 1]
  socc        [1, 0, 0, 0]
  freeze_core true

  r_convergence 10
  e_convergence 10
  d_convergence 10
}

energy('ccsd(t)')

refnuc  =  18.91527050905531  # TEST
refscf  = -92.21277694979756  # TEST
refccsd = -92.47683016412106  # TEST
e_total = -92.48929141166354  # TEST

compare_values(refnuc, CN.nuclear_repulsion_energy(), 9, "Nuclear repulsion energy") #TEST
compare_values(refscf, variable("SCF total energy"), 7, "SCF energy") #TEST
compare_values(refccsd, variable("CCSD total energy"), 7, "CCSD energy") #TEST
compare_values(e_total, variable("CCSD(T) total energy"), 7, "CCSD(T) energy") #TEST
compare_values(e_total, variable("Current energy"), 7, "CCSD(T) energy") #TEST

--------------------------------------------------------------------------

Scratch directory: /tmp/

*** tstart() called on dhcp189-242.emerson.emory.edu
*** at Mon Feb 14 12:24:44 2022

   => Loading Basis Set <=

    Name: CC-PVDZ
    Role: ORBITAL
    Keyword: BASIS
    atoms 1 entry C          line   138 file /Users/jonathonmisiewicz/psi4/objdir/stage/share/psi4/basis/cc-pvdz.gbs 
    atoms 2 entry N          line   168 file /Users/jonathonmisiewicz/psi4/objdir/stage/share/psi4/basis/cc-pvdz.gbs 


         ---------------------------------------------------------
                                   SCF
               by Justin Turney, Rob Parrish, Andy Simmonett
                          and Daniel G. A. Smith
                              UHF Reference
                        1 Threads,    500 MiB Core
         ---------------------------------------------------------

  ==> Geometry <==

    Molecular point group: c2v
    Full point group: C_inf_v

    Geometry (in Angstrom), charge = 0, multiplicity = 2:

       Center              X                  Y                   Z               Mass       
    ------------   -----------------  -----------------  -----------------  -----------------
         C            0.000000000000     0.000000000000    -0.632756417661    12.000000000000
         N            0.000000000000     0.000000000000     0.542243582339    14.003074004430

  Running in c2v symmetry.

  Rotational constants: A = ************  B =      1.88947  C =      1.88947 [cm^-1]
  Rotational constants: A = ************  B =  56644.99308  C =  56644.99308 [MHz]
  Nuclear repulsion =   18.915270509055315

  Charge       = 0
  Multiplicity = 2
  Electrons    = 13
  Nalpha       = 7
  Nbeta        = 6

  ==> Algorithm <==

  SCF Algorithm Type is PK.
  DIIS enabled.
  MOM disabled.
  Fractional occupation disabled.
  Guess Type is SAD.
  Energy threshold   = 1.00e-10
  Density threshold  = 1.00e-10
  Integral threshold = 1.00e-12

  ==> Primary Basis <==

  Basis Set: CC-PVDZ
    Blend: CC-PVDZ
    Number of shells: 12
    Number of basis functions: 28
    Number of Cartesian functions: 30
    Spherical Harmonics?: true
    Max angular momentum: 2

  ==> Integral Setup <==

  Using in-core PK algorithm.
   Calculation information:
      Number of atoms:                   2
      Number of AO shells:              12
      Number of primitives:             44
      Number of atomic orbitals:        30
      Number of basis functions:        28

      Integral cutoff                 1.00e-12
      Number of threads:                 1

  Performing in-core PK
  Using 165242 doubles for integral storage.
  We computed 3081 shell quartets total.
  Whereas there are 3081 unique shell quartets.

  ==> DiskJK: Disk-Based J/K Matrices <==

    J tasked:                  Yes
    K tasked:                  Yes
    wK tasked:                  No
    Memory [MiB]:              375
    Schwarz Cutoff:          1E-12

    OpenMP threads:              1

  Minimum eigenvalue in the overlap matrix is 1.0795200130E-02.
  Reciprocal condition number of the overlap matrix is 3.4696262257E-03.
    Using symmetric orthogonalization.

  ==> Pre-Iterations <==

  SCF Guess: Superposition of Atomic Densities via on-the-fly atomic UHF (no occupation information).

   -------------------------
    Irrep   Nso     Nmo    
   -------------------------
     A1        14      14 
     A2         2       2 
     B1         6       6 
     B2         6       6 
   -------------------------
    Total      28      28
   -------------------------

  ==> Iterations <==

                        Total Energy        Delta E     RMS |[F,P]|

   @UHF iter SAD:   -91.22667458514728   -9.12267e+01   0.00000e+00 
   @UHF iter   1:   -92.12725706003171   -9.00582e-01   2.19691e-02 ADIIS/DIIS
   @UHF iter   2:   -92.12500269727481    2.25436e-03   2.40770e-02 ADIIS/DIIS
   @UHF iter   3:   -92.19641514058500   -7.14124e-02   2.40236e-03 ADIIS/DIIS
   @UHF iter   4:   -92.19957806919193   -3.16293e-03   1.36943e-03 ADIIS/DIIS
   @UHF iter   5:   -92.20122014268492   -1.64207e-03   1.31845e-03 ADIIS/DIIS
   @UHF iter   6:   -92.20296861271224   -1.74847e-03   1.27644e-03 ADIIS/DIIS
   @UHF iter   7:   -92.20631414291374   -3.34553e-03   1.16884e-03 ADIIS/DIIS
   @UHF iter   8:   -92.21090903196884   -4.59489e-03   7.86345e-04 ADIIS/DIIS
   @UHF iter   9:   -92.21221729661853   -1.30826e-03   6.32672e-04 ADIIS/DIIS
   @UHF iter  10:   -92.21254136336577   -3.24067e-04   3.17201e-04 ADIIS/DIIS
   @UHF iter  11:   -92.21277212687860   -2.30764e-04   4.87503e-05 DIIS
   @UHF iter  12:   -92.21277576745224   -3.64057e-06   2.65313e-05 DIIS
   @UHF iter  13:   -92.21277680872235   -1.04127e-06   9.63883e-06 DIIS
   @UHF iter  14:   -92.21277694583256   -1.37110e-07   1.42660e-06 DIIS
   @UHF iter  15:   -92.21277694977660   -3.94404e-09   2.03934e-07 DIIS
   @UHF iter  16:   -92.21277694979419   -1.75930e-11   4.26409e-08 DIIS
   @UHF iter  17:   -92.21277694979726   -3.06954e-12   1.30309e-08 DIIS
   @UHF iter  18:   -92.21277694979761   -3.55271e-13   5.03733e-10 DIIS
   @UHF iter  19:   -92.21277694979761    0.00000e+00   1.33786e-10 DIIS
   @UHF iter  20:   -92.21277694979756    5.68434e-14   4.47041e-11 DIIS
  Energy and wave function converged.


  ==> Post-Iterations <==

   @Spin Contamination Metric:   4.123375094E-01
   @S^2 Expected:                7.500000000E-01
   @S^2 Observed:                1.162337509E+00
   @S   Expected:                5.000000000E-01
   @S   Observed:                5.000000000E-01

    Orbital Energies [Eh]
    ---------------------

    Alpha Occupied:                                                       

       1A1   -15.609649     2A1   -11.361901     3A1    -1.240449  
       4A1    -0.739642     5A1    -0.563366     1B1    -0.515486  
       1B2    -0.515486  

    Alpha Virtual:                                                        

       2B1     0.185545     2B2     0.185545     6A1     0.371294  
       3B1     0.618208     3B2     0.618208     7A1     0.647664  
       8A1     0.874611     9A1     1.016318     4B1     1.069923  
       4B2     1.069923     1A2     1.276314    10A1     1.276314  
       5B2     1.477267     5B1     1.477267    11A1     1.568138  
       2A2     2.197372    12A1     2.197372    13A1     2.235884  
       6B2     2.682841     6B1     2.682841    14A1     3.102221  

    Beta Occupied:                                                        

       1A1   -15.635827     2A1   -11.306231     3A1    -1.254501  
       4A1    -0.616935     1B2    -0.533650     1B1    -0.533650  

    Beta Virtual:                                                         

       5A1    -0.011000     2B1     0.210416     2B2     0.210416  
       6A1     0.399783     3B1     0.708996     3B2     0.708996  
       7A1     0.800256     8A1     0.870942     4B1     1.008070  
       4B2     1.008070     9A1     1.090983    10A1     1.361267  
       1A2     1.361267     5B2     1.541385     5B1     1.541385  
      11A1     1.563544     2A2     2.124491    12A1     2.124491  
      13A1     2.286372     6B2     2.677621     6B1     2.677621  
      14A1     3.100604  

    Final Occupation by Irrep:
             A1    A2    B1    B2 
    DOCC [     4,    0,    1,    1 ]
    SOCC [     1,    0,    0,    0 ]

  @UHF Final Energy:   -92.21277694979756

   => Energetics <=

    Nuclear Repulsion Energy =             18.9152705090553148
    One-Electron Energy =                -161.8293228690310457
    Two-Electron Energy =                  50.7012754101781695
    Total Energy =                        -92.2127769497975578

  UHF NO Occupations:
  HONO-2 :    1 B2 1.8920315
  HONO-1 :    1 B1 1.8920315
  HONO-0 :    5 A1 1.0000000
  LUNO+0 :    2 B2 0.1079685
  LUNO+1 :    2 B1 0.1079685
  LUNO+2 :    6 A1 0.0015115
  LUNO+3 :    7 A1 0.0003783


Computation Completed


Properties will be evaluated at   0.000000,   0.000000,   0.000000 [a0]

Properties computed using the SCF density matrix

  Nuclear Dipole Moment: [e a0]
     X:     0.0000      Y:     0.0000      Z:    -0.0016

  Electronic Dipole Moment: [e a0]
     X:     0.0000      Y:     0.0000      Z:    -0.8189

  Dipole Moment: [e a0]
     X:     0.0000      Y:     0.0000      Z:    -0.8205     Total:     0.8205

  Dipole Moment: [D]
     X:     0.0000      Y:     0.0000      Z:    -2.0855     Total:     2.0855


*** tstop() called on dhcp189-242.emerson.emory.edu at Mon Feb 14 12:24:45 2022
Module time:
	user time   =       0.78 seconds =       0.01 minutes
	system time =       0.13 seconds =       0.00 minutes
	total time  =          1 seconds =       0.02 minutes
Total time:
	user time   =       0.78 seconds =       0.01 minutes
	system time =       0.13 seconds =       0.00 minutes
	total time  =          1 seconds =       0.02 minutes
 MINTS: Wrapper to libmints.
   by Justin Turney

   Calculation information:
      Number of threads:                 1
      Number of atoms:                   2
      Number of AO shells:              12
      Number of SO shells:              12
      Number of primitives:             44
      Number of atomic orbitals:        30
      Number of basis functions:        28

      Number of irreps:                  4
      Integral cutoff                 1.00e-12
      Number of functions per irrep: [  14    2    6    6 ]

 OEINTS: Overlap, kinetic, potential, dipole, and quadrupole integrals
         stored in file 35.

      Computing two-electron integrals...done
      Computed 19125 non-zero two-electron integrals.
        Stored in file 33.


*** tstart() called on dhcp189-242.emerson.emory.edu
*** at Mon Feb 14 12:24:45 2022


	Wfn Parameters:
	--------------------
	Wavefunction         = CCSD_T
	Number of irreps     = 4
	Number of MOs        = 28
	Number of active MOs = 26
	AO-Basis             = NONE
	Semicanonical        = false
	Reference            = UHF
	Print Level          = 1

	IRREP	# MOs	# FZDC	# DOCC	# SOCC	# VIRT	# FZVR
	-----	-----	------	------	------	------	------
	 A1	   14	    2	    2	    1	    9	    0
	 A2	   2	    0	    0	    0	    2	    0
	 B1	   6	    0	    1	    0	    5	    0
	 B2	   6	    0	    1	    0	    5	    0
	Transforming integrals...
	IWL integrals will be deleted.
	(OO|OO)...
	Presorting SO-basis two-electron integrals.
	Sorting File: SO Ints (nn|nn) nbuckets = 1
	Constructing frozen core operators
	Starting AA/AB first half-transformation.
	Sorting AA/AB half-transformed integrals.
	Starting BB first half-transformation.
	Sorting BB half-transformed integrals.
	First half integral transformation complete.
	Starting AA second half-transformation.
	Starting AB second half-transformation.
	Starting BB second half-transformation.
	Two-electron integral transformation complete.
	(OO|OV)...
	Starting AA second half-transformation.
	Starting AB second half-transformation.
	Starting BB second half-transformation.
	Two-electron integral transformation complete.
	(OO|VV)...
	Starting AA second half-transformation.
	Starting AB second half-transformation.
	Starting BB second half-transformation.
	Two-electron integral transformation complete.
	(OV|OO)...
	Starting AA/AB first half-transformation.
	Sorting AA/AB half-transformed integrals.
	Starting BB first half-transformation.
	Sorting BB half-transformed integrals.
	First half integral transformation complete.
	Starting AA second half-transformation.
	Starting AB second half-transformation.
	Starting BB second half-transformation.
	Two-electron integral transformation complete.
	(OV|OV)...
	Starting AA second half-transformation.
	Starting AB second half-transformation.
	Starting BB second half-transformation.
	Two-electron integral transformation complete.
	(OV|VV)...
	Starting AA second half-transformation.
	Starting AB second half-transformation.
	Starting BB second half-transformation.
	Two-electron integral transformation complete.
	(VV|OO)...
	Starting AA/AB first half-transformation.
	Sorting AA/AB half-transformed integrals.
	Starting BB first half-transformation.
	Sorting BB half-transformed integrals.
	First half integral transformation complete.
	Starting AA second half-transformation.
	Starting AB second half-transformation.
	Starting BB second half-transformation.
	Two-electron integral transformation complete.
	(VV|OV)...
	Starting AA second half-transformation.
	Starting AB second half-transformation.
	Starting BB second half-transformation.
	Two-electron integral transformation complete.
	(VV|VV)...
	Starting AA second half-transformation.
	Starting AB second half-transformation.
	Starting BB second half-transformation.
	Two-electron integral transformation complete.
	Frozen core energy     =    -86.99935299321515

	Size of irrep 0 of <AB|CD> integrals:      0.003 (MW) /      0.026 (MB)
	Size of irrep 1 of <AB|CD> integrals:      0.002 (MW) /      0.015 (MB)
	Size of irrep 2 of <AB|CD> integrals:      0.003 (MW) /      0.024 (MB)
	Size of irrep 3 of <AB|CD> integrals:      0.003 (MW) /      0.024 (MB)
	Total:                                     0.011 (MW) /      0.089 (MB)

	Size of irrep 0 of <ab|cd> integrals:      0.004 (MW) /      0.035 (MB)
	Size of irrep 1 of <ab|cd> integrals:      0.002 (MW) /      0.016 (MB)
	Size of irrep 2 of <ab|cd> integrals:      0.004 (MW) /      0.029 (MB)
	Size of irrep 3 of <ab|cd> integrals:      0.004 (MW) /      0.029 (MB)
	Total:                                     0.014 (MW) /      0.109 (MB)

	Size of irrep 0 of <Ab|Cd> integrals:      0.021 (MW) /      0.166 (MB)
	Size of irrep 1 of <Ab|Cd> integrals:      0.008 (MW) /      0.062 (MB)
	Size of irrep 2 of <Ab|Cd> integrals:      0.013 (MW) /      0.106 (MB)
	Size of irrep 3 of <Ab|Cd> integrals:      0.013 (MW) /      0.106 (MB)
	Total:                                     0.055 (MW) /      0.439 (MB)

	Size of irrep 0 of <IA|BC> integrals:      0.005 (MW) /      0.040 (MB)
	Size of irrep 1 of <IA|BC> integrals:      0.001 (MW) /      0.011 (MB)
	Size of irrep 2 of <IA|BC> integrals:      0.003 (MW) /      0.023 (MB)
	Size of irrep 3 of <IA|BC> integrals:      0.003 (MW) /      0.023 (MB)
	Total:                                     0.012 (MW) /      0.097 (MB)

	Size of irrep 0 of <ia|bc> integrals:      0.005 (MW) /      0.037 (MB)
	Size of irrep 1 of <ia|bc> integrals:      0.001 (MW) /      0.010 (MB)
	Size of irrep 2 of <ia|bc> integrals:      0.003 (MW) /      0.021 (MB)
	Size of irrep 3 of <ia|bc> integrals:      0.003 (MW) /      0.021 (MB)
	Total:                                     0.011 (MW) /      0.089 (MB)

	Size of irrep 0 of <Ia|Bc> integrals:      0.006 (MW) /      0.046 (MB)
	Size of irrep 1 of <Ia|Bc> integrals:      0.001 (MW) /      0.011 (MB)
	Size of irrep 2 of <Ia|Bc> integrals:      0.003 (MW) /      0.025 (MB)
	Size of irrep 3 of <Ia|Bc> integrals:      0.003 (MW) /      0.025 (MB)
	Total:                                     0.013 (MW) /      0.107 (MB)

	Size of irrep 0 of <iA|bC> integrals:      0.004 (MW) /      0.032 (MB)
	Size of irrep 1 of <iA|bC> integrals:      0.001 (MW) /      0.010 (MB)
	Size of irrep 2 of <iA|bC> integrals:      0.002 (MW) /      0.019 (MB)
	Size of irrep 3 of <iA|bC> integrals:      0.002 (MW) /      0.019 (MB)
	Total:                                     0.010 (MW) /      0.081 (MB)

	Size of irrep 0 of tIjAb amplitudes:       0.001 (MW) /      0.009 (MB)
	Size of irrep 1 of tIjAb amplitudes:       0.000 (MW) /      0.001 (MB)
	Size of irrep 2 of tIjAb amplitudes:       0.001 (MW) /      0.005 (MB)
	Size of irrep 3 of tIjAb amplitudes:       0.001 (MW) /      0.005 (MB)
	Total:                                     0.002 (MW) /      0.020 (MB)

	Nuclear Rep. energy          =     18.91527050905531
	SCF energy                   =    -92.21277694979756
	One-electron energy          =    -41.74422422807553
	Two-electron (AA) energy     =      4.27920484231701
	Two-electron (BB) energy     =      3.03649992495415
	Two-electron (AB) energy     =     10.29982499516661
	Two-electron energy          =     17.61552976243777
	Reference energy             =    -92.21277694979760

*** tstop() called on dhcp189-242.emerson.emory.edu at Mon Feb 14 12:24:45 2022
Module time:
	user time   =       0.06 seconds =       0.00 minutes
	system time =       0.14 seconds =       0.00 minutes
	total time  =          0 seconds =       0.00 minutes
Total time:
	user time   =       0.90 seconds =       0.01 minutes
	system time =       0.28 seconds =       0.00 minutes
	total time  =          1 seconds =       0.02 minutes
            **************************
            *                        *
            *        CCENERGY        *
            *                        *
            **************************

    Nuclear Rep. energy (wfn)     =   18.915270509055315
    SCF energy          (wfn)     =  -92.212776949797558
    Reference energy    (file100) =  -92.212776949797600

    Input parameters:
    -----------------
    Wave function   =     CCSD_T
    Reference wfn   =     UHF
    Brueckner       =     No
    Memory (Mbytes) =     524.3
    Maxiter         =     50
    R_Convergence   =     1.0e-10
    E_Convergence   =     1.0e-10
    Restart         =     Yes
    DIIS            =     Yes
    AO Basis        =     NONE
    ABCD            =     NEW
    Cache Level     =     2
    Cache Type      =     LRU
    Print Level     =     1
    Num. of threads =     1
    # Amps to Print =     10
    Print MP2 Amps? =     No
    Analyze T2 Amps =     No
    Print Pair Ener =     No
    Local CC        =     No
    SCS-MP2         =     False
    SCSN-MP2        =     False
    SCS-CCSD        =     False

MP2 correlation energy -0.2219961472230013
                Solving CC Amplitude Equations
                ------------------------------
  Iter             Energy              RMS        T1Diag      D1Diag    New D1Diag    D2Diag
  ----     ---------------------    ---------   ----------  ----------  ----------   --------
     0        -0.221996147223001    0.000e+00    0.000000    0.000000    0.000000    0.000000
     1        -0.227318453802899    1.127e-01    0.034203    0.000000    0.000000    0.000000
     2        -0.244460938844439    6.180e-02    0.055516    0.000000    0.000000    0.000000
     3        -0.258959227396058    5.026e-02    0.096674    0.000000    0.000000    0.000000
     4        -0.262343396027824    2.205e-02    0.117471    0.000000    0.000000    0.000000
     5        -0.262908625301728    1.243e-02    0.122443    0.000000    0.000000    0.000000
     6        -0.263757860159041    8.177e-03    0.126445    0.000000    0.000000    0.000000
     7        -0.263879213670575    3.817e-03    0.128184    0.000000    0.000000    0.000000
     8        -0.264014622641420    1.695e-03    0.128964    0.000000    0.000000    0.000000
     9        -0.264066159113099    8.614e-04    0.129290    0.000000    0.000000    0.000000
    10        -0.264071947073082    4.297e-04    0.129464    0.000000    0.000000    0.000000
    11        -0.264057394578788    1.444e-04    0.129427    0.000000    0.000000    0.000000
    12        -0.264050059493789    4.714e-05    0.129438    0.000000    0.000000    0.000000
    13        -0.264053149759466    1.551e-05    0.129448    0.000000    0.000000    0.000000
    14        -0.264053082102796    4.850e-06    0.129447    0.000000    0.000000    0.000000
    15        -0.264053292040336    1.185e-06    0.129448    0.000000    0.000000    0.000000
    16        -0.264053244603707    4.821e-07    0.129447    0.000000    0.000000    0.000000
    17        -0.264053225387281    1.513e-07    0.129447    0.000000    0.000000    0.000000
    18        -0.264053212384162    5.776e-08    0.129447    0.000000    0.000000    0.000000
    19        -0.264053213264483    1.937e-08    0.129447    0.000000    0.000000    0.000000
    20        -0.264053213601322    6.712e-09    0.129447    0.000000    0.000000    0.000000
    21        -0.264053214246285    3.196e-09    0.129447    0.000000    0.000000    0.000000
    22        -0.264053214333730    1.431e-09    0.129447    0.000000    0.000000    0.000000
    23        -0.264053214365587    4.293e-10    0.129447    0.000000    0.000000    0.000000
    24        -0.264053214342625    2.148e-10    0.129447    0.000000    0.000000    0.000000
    25        -0.264053214328292    1.264e-10    0.129447    0.000000    0.000000    0.000000
    26        -0.264053214323471    6.497e-11    0.129447    0.000000    0.000000    0.000000

    Iterations converged.


    Largest TIA Amplitudes:
              3  11        -0.1562916738
              4  16        -0.1562916738
              3  13        -0.0386837032
              4  18        -0.0386837032
              3  14         0.0217614513
              4  19         0.0217614513
              0   3         0.0109229453
              1   1        -0.0077761744
              3  12        -0.0076150461
              4  17        -0.0076150461

    Largest Tia Amplitudes:
              1   0         0.2352609864
              2  12         0.1325985768
              3  17         0.1325985768
              2  13         0.0459911505
              3  18         0.0459911505
              1   2        -0.0413568411
              2  15         0.0134656292
              3  20         0.0134656292
              2  14         0.0119131199
              3  19         0.0119131199

    Largest TIJAB Amplitudes:
      4   3  16  11        -0.0398170900
      3   2  11   3        -0.0234853057
      4   2  16   3        -0.0234853057
      4   3  17  12        -0.0206385187
      4   3   9   4        -0.0188072543
      3   1  12   1        -0.0168567616
      4   1  17   1        -0.0168567616
      3   1  11   1        -0.0140526604
      4   1  16   1        -0.0140526604
      3   1  11   4         0.0120691041

    Largest Tijab Amplitudes:
      3   2  17  12        -0.0346069068
      2   1  12   0        -0.0310243235
      3   1  17   0        -0.0310243235
      3   2  19  14        -0.0150424516
      3   2  17  14        -0.0147208146
      3   2  19  12        -0.0147208146
      2   1  12   4         0.0144836227
      3   1  17   4         0.0144836227
      3   2  10   5        -0.0138482885
      3   2  18  13        -0.0135177433

    Largest TIjAb Amplitudes:
      3   2  11  12        -0.1090709879
      4   3  16  17        -0.1090709879
      3   1  11   0        -0.0876053239
      4   1  16   0        -0.0876053239
      3   3  11  17        -0.0648698706
      4   2  16  12        -0.0648698706
      1   2  11   0         0.0593336553
      1   3  16   0         0.0593336553
      1   1  11  12         0.0462409323
      1   1  16  17         0.0462409323

    SCF energy       (wfn)                    =  -92.212776949797558
    Reference energy (file100)                =  -92.212776949797600

    Opposite-spin MP2 correlation energy      =   -0.157972639688793
    Same-spin MP2 correlation energy          =   -0.064023507534208
    Singles MP2 correlation energy            =   -0.000000000000000
    MP2 correlation energy                    =   -0.221996147223001
      * MP2 total energy                      =  -92.434773097020596

    Opposite-spin CCSD correlation energy     =   -0.213601689706702
    Same-spin CCSD correlation energy         =   -0.050451524616768
    Singles CCSD correlation energy           =    0.000000000000000
    CCSD correlation energy                   =   -0.264053214323471
      * CCSD total energy                     =  -92.476830164121068

            **************************
            *                        *
            *        CCTRIPLES       *
            *                        *
            **************************


    Wave function   =    CCSD_T
    Reference wfn   =      UHF

    Nuclear Rep. energy (wfn)                =   18.915270509055315
    SCF energy          (wfn)                =  -92.212776949797558
    Reference energy    (file100)            =  -92.212776949797600
    CCSD energy         (file100)            =   -0.264053214323471
    Total CCSD energy   (file100)            =  -92.476830164121068

    Number of ijk index combinations:
    Spin Case AAA:                                  10
    Spin Case BBB:                                   4
    Spin Case AAB:                                  40
    Spin Case ABB:                                  30
    AAA (T) energy                             =   -0.000105841308132
    BBB (T) energy                             =   -0.000012376417532
    AAB (T) energy                             =   -0.007108814404488
    ABB (T) energy                             =   -0.005234215412327
    (T) energy                                   =   -0.012461247542480
      * CCSD(T) total energy                     =  -92.489291411663544

    Nuclear repulsion energy..............................................................PASSED
    SCF energy............................................................................PASSED
    CCSD energy...........................................................................PASSED
    CCSD(T) energy........................................................................PASSED
    CCSD(T) energy........................................................................PASSED

    Psi4 stopped on: Monday, 14 February 2022 12:24PM
    Psi4 wall time for execution: 0:00:03.13

*** Psi4 exiting successfully. Buy a developer a beer!
