    -----------------------------------------------------------------------
          PSI4: An Open-Source Ab Initio Electronic Structure Package
                              PSI 4.0.0-beta1 Driver

    J. M. Turney, A. C. Simmonett, R. M. Parrish, E. G. Hohenstein,
    F. Evangelista, J. T. Fermann, B. J. Mintz, L. A. Burns, J. J. Wilke,
    M. L. Abrams, N. J. Russ, M. L. Leininger, C. L. Janssen, E. T. Seidl,
    W. D. Allen, H. F. Schaefer, R. A. King, E. F. Valeev, C. D. Sherrill,
    and T. D. Crawford, WIREs Comput. Mol. Sci., (2011) (doi: 10.1002/wcms.93)

                         Additional Contributions by
    A. E. DePrince, M. Saitow, U. Bozkaya, A. Yu. Sokolov
    -----------------------------------------------------------------------


    Using LocalCommunicator (Number of processes = 1)

    Memory level set to 256.000 MB

  ==> Input File <==

--------------------------------------------------------------------------
#! 6-31G* C2 Test RASCI Energy Point, testing two different ways of
#! specifying the active space, either with the ACTIVE keyword, or
#! with RAS1, RAS2, RESTRICTED_DOCC, and RESTRICTED_UOCC

memory 250 mb

refnuc   =  15.2403036073920  #TEST
refscf   = -75.3789876324580  #TEST
refci    = -75.5556153544407  #TEST
refcorr  = refci - refscf     #TEST

molecule c2 {
  C
  C 1 1.25
}

set globals {
  wfn detci
  basis 6-31G*
  d_convergence 10
  restricted_docc [1, 0, 0, 0, 0, 1, 0, 0]
  active          [2, 0, 1, 1, 0, 2, 1, 1]
}

thisenergy = energy('detci')

compare_values(refnuc, c2.nuclear_repulsion_energy(), 9, "Nuclear repulsion energy") #TEST 
compare_values(refscf, get_variable("SCF total energy"),     9, "SCF energy") #TEST
compare_values(refci, thisenergy,                      7, "CI energy") #TEST
compare_values(refcorr, get_variable("CI CORRELATION ENERGY"), 7, "CI correlation energy") #TEST

clean()


# The following is an alternative way of specifying exactly the same CI
set globals {
  wfn detci
  basis 6-31G*
  restricted_docc [1, 0, 0, 0, 0, 1, 0, 0]
  restricted_uocc [5, 1, 2, 2, 1, 5, 2, 2]
  ras1            [1, 0, 0, 0, 0, 1, 1, 1]
  ras2            [1, 0, 1, 1, 0, 1, 0, 0]
  ex_level 2
  val_ex_level 6
}

thisenergy = energy('detci')

compare_values(refnuc, c2.nuclear_repulsion_energy(), 9, "Nuclear repulsion energy") #TEST 
compare_values(refscf, get_variable("SCF total energy"),     9, "SCF energy") #TEST
compare_values(refci, thisenergy,                      7, "CI energy") #TEST
compare_values(refcorr, get_variable("CI CORRELATION ENERGY"), 7, "CI correlation energy") #TEST

--------------------------------------------------------------------------

  Memory set to 250.000 MiB by Python script.

*** tstart() called on QuickSilver.local
*** at Mon Jan 23 14:52:19 2012

	There are an even number of electrons - assuming singlet.
	Specify the multiplicity with the MULTP option in the
	input if this is incorrect


         ---------------------------------------------------------
                                   SCF
            by Justin Turney, Rob Parrish, and Andy Simmonett
                              RHF Reference
                        1 Threads,    250 MiB Core
         ---------------------------------------------------------

  ==> Geometry <==

    Molecular point group: d2h

    Geometry (in Angstrom), charge = 0, multiplicity = 1:

       Center              X                  Y                   Z       
    ------------   -----------------  -----------------  -----------------
           C          0.000000000000     0.000000000000    -0.625000000000
           C          0.000000000000     0.000000000000     0.625000000000

    Number of unique atoms: 1

    Atoms equivalency:
       unique atom 0: 0 1 

  Running in d2h symmetry.

  Nuclear repulsion =   15.240303607392006

  Charge       = 0
  Multiplicity = 1
  Electrons    = 12
  Nalpha       = 6
  Nbeta        = 6

  ==> Algorithm <==

  SCF Algorithm Type is PK.
  DIIS enabled.
  MOM disabled.
  Fractional occupation disabled.
  Guess Type is CORE.
  Energy threshold   = 1.00e-08
  Density threshold  = 1.00e-10
  Integral threshold = 0.00e+00

  ==> Primary Basis: 6-31G* <==

  Basis Set
    Number of shells: 12
    Number of basis function: 30
    Number of Cartesian functions: 30
    Spherical Harmonics?: false
    Max angular momentum: 2

  ==> Pre-Iterations <==

  Minimum eigenvalue in the overlap matrix is 6.0513128297E-03.
  Using Symmetric Orthogonalization.
  SCF Guess: Core (One-Electron) Hamiltonian.

  Initial RHF energy:   -54.02990106723345

   -------------------------------------------------------
    Irrep   Nso     Nmo     Nalpha   Nbeta   Ndocc  Nsocc
   -------------------------------------------------------
     Ag         8       8       2       2       2       0
     B1g        1       1       0       0       0       0
     B2g        3       3       0       0       0       0
     B3g        3       3       0       0       0       0
     Au         1       1       0       0       0       0
     B1u        8       8       2       2       2       0
     B2u        3       3       1       1       1       0
     B3u        3       3       1       1       1       0
   -------------------------------------------------------
    Total      30      30       6       6       6       0
   -------------------------------------------------------

  ==> Integral Setup <==

 MINTS: Wrapper to libmints.
   by Justin Turney

   Calculation information:
      Number of atoms:                   2
      Number of AO shells:              12
      Number of SO shells:               6
      Number of primitives:             30
      Number of atomic orbitals:        30
      Number of basis functions:        30

      Number of irreps:                  8
      Number of functions per irrep: [   8    1    3    3    1    8    3    3 ]

      Overlap, kinetic, potential, dipole, and quadrupole integrals
        stored in file 35.

      Computing two-electron integrals...done
      Computed 15467 non-zero two-electron integrals.
        Stored in file 33.

  ==> Iterations <==

                        Total Energy        Delta E     Density RMS

   @RHF iter   1:   -69.26344006240822   -1.52335e+01   0.00000e+00 
   @RHF iter   2:   -74.02434387921244   -4.76090e+00   5.03000e-01 DIIS
   @RHF iter   3:   -75.36802946776807   -1.34369e+00   1.92191e-01 DIIS
   @RHF iter   4:   -75.37852574320735   -1.04963e-02   2.03622e-02 DIIS
   @RHF iter   5:   -75.37898197519820   -4.56232e-04   5.38656e-03 DIIS
   @RHF iter   6:   -75.37898755265861   -5.57746e-06   4.19861e-04 DIIS
   @RHF iter   7:   -75.37898763107978   -7.84212e-08   2.92190e-05 DIIS
   @RHF iter   8:   -75.37898763239173   -1.31195e-09   2.44158e-06 DIIS
   @RHF iter   9:   -75.37898763245667   -6.49436e-11   5.39152e-07 DIIS
   @RHF iter  10:   -75.37898763245803   -1.36424e-12   8.19825e-08 DIIS
   @RHF iter  11:   -75.37898763245805   -1.42109e-14   4.62836e-08 DIIS
   @RHF iter  12:   -75.37898763245803    1.42109e-14   3.81855e-09 DIIS

  ==> Post-Iterations <==

	Orbital Energies (a.u.)
	-----------------------

	Doubly Occupied:                                                      

	   1Ag   -11.357208     1B1u  -11.355080     2Ag    -1.051847  
	   2B1u   -0.512141     1B3u   -0.447766     1B2u   -0.447766  

	Virtual:                                                              

	   3Ag    -0.097231     1B2g    0.174809     1B3g    0.174809  
	   3B1u    0.474174     4Ag     0.663155     2B3u    0.712827  
	   2B2u    0.712827     5Ag     0.756496     2B2g    0.850769  
	   2B3g    0.850769     4B1u    0.945761     5B1u    1.328477  
	   3B3u    1.741331     3B2u    1.741331     1B1g    1.779183  
	   6Ag     1.779183     1Au     2.177606     6B1u    2.177606  
	   7Ag     2.429981     3B2g    2.756092     3B3g    2.756092  
	   7B1u    3.127750     8Ag     4.288133     8B1u    4.437652  

	Final Occupation by Irrep:
	         Ag   B1g   B2g   B3g    Au   B1u   B2u   B3u 
	DOCC [     2,    0,    0,    0,    0,    2,    1,    1 ]

  Energy converged.

  @RHF Final Energy:   -75.37898763245803

  ==> Properties <==
  Nuclear Dipole Moment: (a.u.)
     X:     0.0000      Y:     0.0000      Z:     0.0000

  Electronic Dipole Moment: (a.u.)
     X:     0.0000      Y:     0.0000      Z:     0.0000

  Dipole Moment: (a.u.)
     X:     0.0000      Y:     0.0000      Z:     0.0000     Total:     0.0000

  Dipole Moment: (Debye)
     X:     0.0000      Y:     0.0000      Z:     0.0000     Total:     0.0000


  Saving occupied orbitals to File 180.

*** tstop() called on QuickSilver.local at Mon Jan 23 14:52:19 2012
Module time:
	user time   =       0.08 seconds =       0.00 minutes
	system time =       0.02 seconds =       0.00 minutes
	total time  =          0 seconds =       0.00 minutes
Total time:
	user time   =       0.08 seconds =       0.00 minutes
	system time =       0.02 seconds =       0.00 minutes
	total time  =          0 seconds =       0.00 minutes

*** tstart() called on QuickSilver.local
*** at Mon Jan 23 14:52:19 2012


	**************************************************
	* TRANSQT2: Program to transform integrals from  *
	*           the SO basis to the MO basis.        *
	*                                                *
	*            Daniel, David, & Justin             *
	**************************************************


	Input parameters:
	-----------------
	Wave function   =	DETCI
	Backtransform   =	No
	Print Level     =	1
	Print TEIs      =	No
	Reference wfn   =	RHF
	Derivative      =	None
	Delete TEI File =	Yes
	Memory (Mbytes) =	250.0
	Cache Level     =	2
	Cache Type      =	LRU
	Chkpt Parameters:
	--------------------
	Number of irreps     = 8
	Number of SOs        = 30
	Number of MOs        = 30
	Number of active MOs = 30

	Label	# SOs	# FZDC	# DOCC	# SOCC	# VIRT	# FZVR
	-----	-----	------	------	------	------	------
	 Ag	   8	    0	    2	    0	    6	    0
	 B1g	   1	    0	    0	    0	    1	    0
	 B2g	   3	    0	    0	    0	    3	    0
	 B3g	   3	    0	    0	    0	    3	    0
	 Au	   1	    0	    0	    0	    1	    0
	 B1u	   8	    0	    2	    0	    6	    0
	 B2u	   3	    0	    1	    0	    2	    0
	 B3u	   3	    0	    1	    0	    2	    0

	Nuclear Rep. energy (chkpt) =     15.24030360739201
	SCF energy          (chkpt) =    -75.37898763245803

	Presorting SO-basis two-electron integrals.
	Sorting File: SO Ints (pq,rs) nbuckets = 1
	Frozen-core energy =  -73.180439038149217
	Starting first half-transformation.
	Sorting half-transformed integrals.
	Starting second half-transformation.
	Two-electron integral transformation complete.

*** tstop() called on QuickSilver.local at Mon Jan 23 14:52:19 2012
Module time:
	user time   =       0.02 seconds =       0.00 minutes
	system time =       0.01 seconds =       0.00 minutes
	total time  =          0 seconds =       0.00 minutes
Total time:
	user time   =       0.10 seconds =       0.00 minutes
	system time =       0.03 seconds =       0.00 minutes
	total time  =          0 seconds =       0.00 minutes

*** tstart() called on QuickSilver.local
*** at Mon Jan 23 14:52:19 2012


*******************************************************
                       D E T C I  

                   C. David Sherrill
                   Matt L. Leininger
                     18 June 1999
*******************************************************




PARAMETERS: 
   EX LEVEL      =        2      H0 BLOCKSIZE =      400
   VAL EX LEVEL  =        0      H0 GUESS SIZE=      400
   H0COUPLINGSIZE=        0      H0 COUPLING  =       no
   NUM PRINT     =       20
   MAXITER       =       12      FREEZE CORE  =      yes
   NUM ROOTS     =        1      ICORE        =        1
   PRINT         =        1      FCI          =       no
   R CONV        =   1.00e-04      MIXED        =      yes
   E CONV        =   1.00e-06      MIXED4       =      yes
   OEI FILE      =       35      R4S          =       no
   REPL OTF      =       no
   TEI FILE      =       72      DIAG METHOD  =      SEM
   PRECONDITIONER= DAVIDSON      UPDATE       =   DAVIDSON
   S             =   0.0000      Ms0          =      yes
   MAX NUM VECS  =       13
   RESTART       =       no
   GUESS VECTOR  =  H0BLOCK      OPENTYPE     =     NONE
   REF SYM       =     auto
   COLLAPSE SIZE =        1      HD AVG       = EVANGELISTI
   LSE           =       no      LSE ITER     =        0
   HD OTF        =      yes      NO DFILE     =       no
   MPN           =       no      MPN SCHMIDT  =       no
   ZAPTN         =       no      MPN WIGNER   =       no
   PERT Z        =   1.0000    FOLLOW ROOT  =        0
   NUM THREADS   =        1
   VECS WRITE    =       no      NUM VECS WRITE =        0
   FILTER GUESS  =       no      SF RESTRICT  =       no
   OPDM          =       no      TRANS DENSITY=       no

   FILES         =  50 51 52 53

   EX ALLOW      =  1  1 
   STATE AVERAGE =  1(1.00) 
   STATE AVERAGE =  1(1.00) 

ORBITALS:
   NMO          =       30      NUM ALP      =        6
   ORBS IN CI   =        8      NUM ALP EXPL =        4
   FROZEN CORE  =        2      NUM BET      =        6
   RESTR CORE   =        0      NUM BET EXPL =        4
   IOPEN        =       no
   RAS1 LVL     =       -1      A RAS3 MAX   =        0
   RAS1 MIN     =        4      B RAS3 MAX   =        0
   A RAS1 LVL   =       -1      RAS4 LVL     =        8
   A RAS1 MIN   =        2      A RAS4 MAX   =        0
   A RAS1 MAX   =        2      B RAS4 MAX   =        0
   B RAS1 LVL   =       -1      RAS4 MAX     =        0
   B RAS1 MIN   =        2      A RAS34 MAX  =        0
   B RAS1 MAX   =        2      B RAS34 MAX  =        0
   RAS3 LVL     =        8      RAS34 MAX    =        0
   RAS3 MAX     =        0

   DOCC         =  2  0  0  0  0  2  1  1 
   SOCC         =  0  0  0  0  0  0  0  0 
   FROZEN DOCC  =  1  0  0  0  0  1  0  0 
   FROZEN UOCC  =  5  1  2  2  1  5  2  2 
   RAS 1        =  0  0  0  0  0  0  0  0 
   RAS 2        =  2  0  1  1  0  2  1  1 
   RAS 3        =  0  0  0  0  0  0  0  0 
   RAS 4        =  0  0  0  0  0  0  0  0 
*******************************************************


There are 70 alpha strings
There are 70 beta strings
CI space contains    8 blocks

CI space requires 660 determinants

Check SCF Energy from 1- and 2-electron integrals

SCF Energy (ref):            -75.3789876325
Nuclear repulsion energy:     15.2403036074
One-electron energy:         -29.9586638108
Two-electron energy:          12.5198116091
Frozen core energy:          -73.1804390381
Total electronic energy:     -90.6192912399
Total SCF energy:            -75.3789876325

 CI vector/subblock length = 660

*** H0 Block Eigenvalue = -75.55398471

Find the roots by the Simultaneous Expansion Method (Block Davidson Method)
Energy convergence = 1e-06
RMS CI vector convergence = 0.0001

Using 1 initial trial vectors
Iter  0  Root  1 = -75.553984708   Delta_E -1.761E+01   Delta_C  5.915E-02  
Iter  1  Root  1 = -75.555475212   Delta_E -1.491E-03   Delta_C  1.633E-02  
Iter  2  Root  1 = -75.555595669   Delta_E -1.205E-04   Delta_C  5.782E-03  
Iter  3  Root  1 = -75.555609994   Delta_E -1.432E-05   Delta_C  3.035E-03  
Iter  4  Root  1 = -75.555614355   Delta_E -4.361E-06   Delta_C  1.239E-03  
Iter  5  Root  1 = -75.555615172   Delta_E -8.168E-07   Delta_C  4.520E-04  
Iter  6  Root  1 = -75.555615319   Delta_E -1.478E-07   Delta_C  2.426E-04  
Iter  7  Root  1 = -75.555615354   Delta_E -3.495E-08   Delta_C  8.809E-05 c

* ROOT 1 CI total energy = -75.5556153544407


The 20 most important determinants

    1    0.858525  (   12,   12)  2AgX  2B1uX  1B2uX  1B3uX  
    2   -0.340265  (   42,   42)  2AgX  3AgX  1B2uX  1B3uX  
    3   -0.107673  (   38,   38)  2AgX  1B3gX  2B1uX  1B3uX  
    4   -0.107673  (   34,   34)  2AgX  1B2gX  2B1uX  1B2uX  
    5   -0.093314  (   34,   42)  2AgX  3AgB  1B2gA  2B1uA  1B2uX  1B3uB  
    6   -0.093314  (   42,   34)  2AgX  3AgA  1B2gB  2B1uB  1B2uX  1B3uA  
    7    0.093314  (   38,   42)  2AgX  3AgB  1B3gA  2B1uA  1B2uB  1B3uX  
    8    0.093314  (   42,   38)  2AgX  3AgA  1B3gB  2B1uB  1B2uA  1B3uX  
    9    0.089207  (   66,   68)  2AgX  3AgA  1B3gB  2B1uA  1B2uB  1B3uX  
   10    0.089207  (   68,   66)  2AgX  3AgB  1B3gA  2B1uB  1B2uA  1B3uX  
   11   -0.089207  (   56,   60)  2AgX  3AgA  1B2gB  2B1uA  1B2uX  1B3uB  
   12   -0.089207  (   60,   56)  2AgX  3AgB  1B2gA  2B1uB  1B2uX  1B3uA  
   13   -0.070854  (   12,   13)  2AgA  3AgB  2B1uX  1B2uX  1B3uX  
   14   -0.070854  (   13,   12)  2AgB  3AgA  2B1uX  1B2uX  1B3uX  
   15    0.067749  (    8,    8)  2AgX  3AgX  1B2gX  1B2uX  
   16    0.067749  (   10,   10)  2AgX  3AgX  1B3gX  1B3uX  
   17    0.063462  (   34,   38)  2AgX  1B2gA  1B3gB  2B1uX  1B2uA  1B3uB  
   18    0.063462  (   38,   34)  2AgX  1B2gB  1B3gA  2B1uX  1B2uB  1B3uA  
   19   -0.051604  (   60,   60)  2AgX  1B2gX  1B2uX  1B3uX  
   20   -0.051604  (   68,   68)  2AgX  1B3gX  1B2uX  1B3uX  




        Total Time (s)     %Time 		%Relative
 -----------------------------------------------------
 Read      0.001438
 Write     0.000632
 Sigma1    0.000000
 Sigma2    0.000815
 Sigma3    0.003136
 S1 Thread 0.000000
 S2 Thread 0.000000
 S3 Thread 0.000000

		 "A good bug is a dead bug" 

			 - Starship Troopers

		 "I didn't write FORTRAN.  That's the problem."

			 - Edward Valeev


*** tstop() called on QuickSilver.local at Mon Jan 23 14:52:20 2012
Module time:
	user time   =       0.40 seconds =       0.01 minutes
	system time =       0.02 seconds =       0.00 minutes
	total time  =          1 seconds =       0.02 minutes
Total time:
	user time   =       0.50 seconds =       0.01 minutes
	system time =       0.05 seconds =       0.00 minutes
	total time  =          1 seconds =       0.02 minutes

*** tstart() called on QuickSilver.local
*** at Mon Jan 23 14:52:20 2012

	There are an even number of electrons - assuming singlet.
	Specify the multiplicity with the MULTP option in the
	input if this is incorrect


         ---------------------------------------------------------
                                   SCF
            by Justin Turney, Rob Parrish, and Andy Simmonett
                              RHF Reference
                        1 Threads,    250 MiB Core
         ---------------------------------------------------------

  ==> Geometry <==

    Molecular point group: d2h

    Geometry (in Angstrom), charge = 0, multiplicity = 1:

       Center              X                  Y                   Z       
    ------------   -----------------  -----------------  -----------------
           C          0.000000000000     0.000000000000    -0.625000000000
           C          0.000000000000     0.000000000000     0.625000000000

    Number of unique atoms: 1

    Atoms equivalency:
       unique atom 0: 0 1 

  Running in d2h symmetry.

  Nuclear repulsion =   15.240303607392010

  Charge       = 0
  Multiplicity = 1
  Electrons    = 12
  Nalpha       = 6
  Nbeta        = 6

  ==> Algorithm <==

  SCF Algorithm Type is PK.
  DIIS enabled.
  MOM disabled.
  Fractional occupation disabled.
  Guess Type is CORE.
  Energy threshold   = 1.00e-08
  Density threshold  = 1.00e-10
  Integral threshold = 0.00e+00

  ==> Primary Basis: 6-31G* <==

  Basis Set
    Number of shells: 12
    Number of basis function: 30
    Number of Cartesian functions: 30
    Spherical Harmonics?: false
    Max angular momentum: 2

  ==> Pre-Iterations <==

  Minimum eigenvalue in the overlap matrix is 6.0513128297E-03.
  Using Symmetric Orthogonalization.
  SCF Guess: Core (One-Electron) Hamiltonian.

  Initial RHF energy:   -54.02990106723341

   -------------------------------------------------------
    Irrep   Nso     Nmo     Nalpha   Nbeta   Ndocc  Nsocc
   -------------------------------------------------------
     Ag         8       8       2       2       2       0
     B1g        1       1       0       0       0       0
     B2g        3       3       0       0       0       0
     B3g        3       3       0       0       0       0
     Au         1       1       0       0       0       0
     B1u        8       8       2       2       2       0
     B2u        3       3       1       1       1       0
     B3u        3       3       1       1       1       0
   -------------------------------------------------------
    Total      30      30       6       6       6       0
   -------------------------------------------------------

  ==> Integral Setup <==

 MINTS: Wrapper to libmints.
   by Justin Turney

   Calculation information:
      Number of atoms:                   2
      Number of AO shells:              12
      Number of SO shells:               6
      Number of primitives:             30
      Number of atomic orbitals:        30
      Number of basis functions:        30

      Number of irreps:                  8
      Number of functions per irrep: [   8    1    3    3    1    8    3    3 ]

      Overlap, kinetic, potential, dipole, and quadrupole integrals
        stored in file 35.

      Computing two-electron integrals...done
      Computed 15467 non-zero two-electron integrals.
        Stored in file 33.

  ==> Iterations <==

                        Total Energy        Delta E     Density RMS

   @RHF iter   1:   -69.26344006240811   -1.52335e+01   0.00000e+00 
   @RHF iter   2:   -74.02434387921245   -4.76090e+00   5.03000e-01 DIIS
   @RHF iter   3:   -75.36802946776804   -1.34369e+00   1.92191e-01 DIIS
   @RHF iter   4:   -75.37852574320735   -1.04963e-02   2.03622e-02 DIIS
   @RHF iter   5:   -75.37898197519817   -4.56232e-04   5.38656e-03 DIIS
   @RHF iter   6:   -75.37898755265860   -5.57746e-06   4.19861e-04 DIIS
   @RHF iter   7:   -75.37898763107977   -7.84212e-08   2.92190e-05 DIIS
   @RHF iter   8:   -75.37898763239171   -1.31195e-09   2.44158e-06 DIIS
   @RHF iter   9:   -75.37898763245661   -6.49010e-11   5.39146e-07 DIIS
   @RHF iter  10:   -75.37898763245799   -1.37845e-12   8.21468e-08 DIIS
   @RHF iter  11:   -75.37898763245802   -2.84217e-14   4.65830e-08 DIIS
   @RHF iter  12:   -75.37898763245801    1.42109e-14   3.52806e-09 DIIS
   @RHF iter  13:   -75.37898763245803   -2.84217e-14   1.00870e-10 DIIS

  ==> Post-Iterations <==

	Orbital Energies (a.u.)
	-----------------------

	Doubly Occupied:                                                      

	   1Ag   -11.357208     1B1u  -11.355080     2Ag    -1.051847  
	   2B1u   -0.512141     1B2u   -0.447766     1B3u   -0.447766  

	Virtual:                                                              

	   3Ag    -0.097231     1B2g    0.174809     1B3g    0.174809  
	   3B1u    0.474174     4Ag     0.663155     2B2u    0.712827  
	   2B3u    0.712827     5Ag     0.756496     2B2g    0.850769  
	   2B3g    0.850769     4B1u    0.945761     5B1u    1.328477  
	   3B2u    1.741331     3B3u    1.741331     6Ag     1.779183  
	   1B1g    1.779183     1Au     2.177606     6B1u    2.177606  
	   7Ag     2.429981     3B3g    2.756092     3B2g    2.756092  
	   7B1u    3.127750     8Ag     4.288133     8B1u    4.437652  

	Final Occupation by Irrep:
	         Ag   B1g   B2g   B3g    Au   B1u   B2u   B3u 
	DOCC [     2,    0,    0,    0,    0,    2,    1,    1 ]

  Energy converged.

  @RHF Final Energy:   -75.37898763245803

  ==> Properties <==
  Nuclear Dipole Moment: (a.u.)
     X:     0.0000      Y:     0.0000      Z:     0.0000

  Electronic Dipole Moment: (a.u.)
     X:     0.0000      Y:     0.0000      Z:     0.0000

  Dipole Moment: (a.u.)
     X:     0.0000      Y:     0.0000      Z:     0.0000     Total:     0.0000

  Dipole Moment: (Debye)
     X:     0.0000      Y:     0.0000      Z:     0.0000     Total:     0.0000


  Saving occupied orbitals to File 180.

*** tstop() called on QuickSilver.local at Mon Jan 23 14:52:20 2012
Module time:
	user time   =       0.08 seconds =       0.00 minutes
	system time =       0.01 seconds =       0.00 minutes
	total time  =          0 seconds =       0.00 minutes
Total time:
	user time   =       0.58 seconds =       0.01 minutes
	system time =       0.06 seconds =       0.00 minutes
	total time  =          1 seconds =       0.02 minutes

*** tstart() called on QuickSilver.local
*** at Mon Jan 23 14:52:20 2012


	**************************************************
	* TRANSQT2: Program to transform integrals from  *
	*           the SO basis to the MO basis.        *
	*                                                *
	*            Daniel, David, & Justin             *
	**************************************************


	Input parameters:
	-----------------
	Wave function   =	DETCI
	Backtransform   =	No
	Print Level     =	1
	Print TEIs      =	No
	Reference wfn   =	RHF
	Derivative      =	None
	Delete TEI File =	Yes
	Memory (Mbytes) =	250.0
	Cache Level     =	2
	Cache Type      =	LRU
	Chkpt Parameters:
	--------------------
	Number of irreps     = 8
	Number of SOs        = 30
	Number of MOs        = 30
	Number of active MOs = 30

	Label	# SOs	# FZDC	# DOCC	# SOCC	# VIRT	# FZVR
	-----	-----	------	------	------	------	------
	 Ag	   8	    0	    2	    0	    6	    0
	 B1g	   1	    0	    0	    0	    1	    0
	 B2g	   3	    0	    0	    0	    3	    0
	 B3g	   3	    0	    0	    0	    3	    0
	 Au	   1	    0	    0	    0	    1	    0
	 B1u	   8	    0	    2	    0	    6	    0
	 B2u	   3	    0	    1	    0	    2	    0
	 B3u	   3	    0	    1	    0	    2	    0

	Nuclear Rep. energy (chkpt) =     15.24030360739201
	SCF energy          (chkpt) =    -75.37898763245803

	Presorting SO-basis two-electron integrals.
	Sorting File: SO Ints (pq,rs) nbuckets = 1
	Frozen-core energy =  -73.180439038146645
	Starting first half-transformation.
	Sorting half-transformed integrals.
	Starting second half-transformation.
	Two-electron integral transformation complete.

*** tstop() called on QuickSilver.local at Mon Jan 23 14:52:20 2012
Module time:
	user time   =       0.02 seconds =       0.00 minutes
	system time =       0.01 seconds =       0.00 minutes
	total time  =          0 seconds =       0.00 minutes
Total time:
	user time   =       0.60 seconds =       0.01 minutes
	system time =       0.07 seconds =       0.00 minutes
	total time  =          1 seconds =       0.02 minutes

*** tstart() called on QuickSilver.local
*** at Mon Jan 23 14:52:20 2012


*******************************************************
                       D E T C I  

                   C. David Sherrill
                   Matt L. Leininger
                     18 June 1999
*******************************************************




PARAMETERS: 
   EX LEVEL      =        2      H0 BLOCKSIZE =      400
   VAL EX LEVEL  =        6      H0 GUESS SIZE=      400
   H0COUPLINGSIZE=        0      H0 COUPLING  =       no
   NUM PRINT     =       20
   MAXITER       =       12      FREEZE CORE  =      yes
   NUM ROOTS     =        1      ICORE        =        1
   PRINT         =        1      FCI          =       no
   R CONV        =   1.00e-04      MIXED        =      yes
   E CONV        =   1.00e-06      MIXED4       =      yes
   OEI FILE      =       35      R4S          =       no
   REPL OTF      =       no
   TEI FILE      =       72      DIAG METHOD  =      SEM
   PRECONDITIONER= DAVIDSON      UPDATE       =   DAVIDSON
   S             =   0.0000      Ms0          =      yes
   MAX NUM VECS  =       13
   RESTART       =       no
   GUESS VECTOR  =  H0BLOCK      OPENTYPE     =     NONE
   REF SYM       =     auto
   COLLAPSE SIZE =        1      HD AVG       = EVANGELISTI
   LSE           =       no      LSE ITER     =        0
   HD OTF        =      yes      NO DFILE     =       no
   MPN           =       no      MPN SCHMIDT  =       no
   ZAPTN         =       no      MPN WIGNER   =       no
   PERT Z        =   1.0000    FOLLOW ROOT  =        0
   NUM THREADS   =        1
   VECS WRITE    =       no      NUM VECS WRITE =        0
   FILTER GUESS  =       no      SF RESTRICT  =       no
   OPDM          =       no      TRANS DENSITY=       no

   FILES         =  50 51 52 53

   EX ALLOW      =  1  1 
   STATE AVERAGE =  1(1.00) 
   STATE AVERAGE =  1(1.00) 

ORBITALS:
   NMO          =       30      NUM ALP      =        6
   ORBS IN CI   =        8      NUM ALP EXPL =        4
   FROZEN CORE  =        2      NUM BET      =        6
   RESTR CORE   =        0      NUM BET EXPL =        4
   IOPEN        =       no
   RAS1 LVL     =        3      A RAS3 MAX   =        0
   RAS1 MIN     =        4      B RAS3 MAX   =        0
   A RAS1 LVL   =        3      RAS4 LVL     =        8
   A RAS1 MIN   =        2      A RAS4 MAX   =        0
   A RAS1 MAX   =        6      B RAS4 MAX   =        0
   B RAS1 LVL   =        3      RAS4 MAX     =        0
   B RAS1 MIN   =        2      A RAS34 MAX  =        0
   B RAS1 MAX   =        6      B RAS34 MAX  =        0
   RAS3 LVL     =        8      RAS34 MAX    =        0
   RAS3 MAX     =        0

   DOCC         =  2  0  0  0  0  2  1  1 
   SOCC         =  0  0  0  0  0  0  0  0 
   FROZEN DOCC  =  1  0  0  0  0  1  0  0 
   FROZEN UOCC  =  5  1  2  2  1  5  2  2 
   RAS 1        =  1  0  0  0  0  1  1  1 
   RAS 2        =  1  0  1  1  0  1  0  0 
   RAS 3        =  0  0  0  0  0  0  0  0 
   RAS 4        =  0  0  0  0  0  0  0  0 
*******************************************************


There are 70 alpha strings
There are 70 beta strings
CI space contains   80 blocks

CI space requires 660 determinants

Check SCF Energy from 1- and 2-electron integrals

SCF Energy (ref):            -75.3789876325
Nuclear repulsion energy:     15.2403036074
One-electron energy:         -29.9586638109
Two-electron energy:          12.5198116092
Frozen core energy:          -73.1804390381
Total electronic energy:     -90.6192912399
Total SCF energy:            -75.3789876325

*** H0 Block Eigenvalue = -75.55398471

Find the roots by the Simultaneous Expansion Method (Block Davidson Method)
Energy convergence = 1e-06
RMS CI vector convergence = 0.0001

Using 1 initial trial vectors
Iter  0  Root  1 = -75.553984708   Delta_E -1.761E+01   Delta_C  5.915E-02  
Iter  1  Root  1 = -75.555475212   Delta_E -1.491E-03   Delta_C  1.633E-02  
Iter  2  Root  1 = -75.555595669   Delta_E -1.205E-04   Delta_C  5.782E-03  
Iter  3  Root  1 = -75.555609994   Delta_E -1.432E-05   Delta_C  3.035E-03  
Iter  4  Root  1 = -75.555614355   Delta_E -4.361E-06   Delta_C  1.239E-03  
Iter  5  Root  1 = -75.555615172   Delta_E -8.168E-07   Delta_C  4.520E-04  
Iter  6  Root  1 = -75.555615319   Delta_E -1.478E-07   Delta_C  2.426E-04  
Iter  7  Root  1 = -75.555615354   Delta_E -3.495E-08   Delta_C  8.809E-05 c

* ROOT 1 CI total energy = -75.5556153544268


The 20 most important determinants

    1    0.858525  (    4,    4)  2AgX  2B1uX  1B2uX  1B3uX  
    2   -0.340265  (   32,   32)  2AgX  1B2uX  1B3uX  3AgX  
    3   -0.107673  (   34,   34)  2AgX  2B1uX  1B3uX  1B3gX  
    4   -0.107673  (   33,   33)  2AgX  2B1uX  1B2uX  1B2gX  
    5   -0.093314  (   32,   33)  2AgX  2B1uB  1B2uX  1B3uA  3AgA  1B2gB  
    6   -0.093314  (   33,   32)  2AgX  2B1uA  1B2uX  1B3uB  3AgB  1B2gA  
    7    0.093314  (   32,   34)  2AgX  2B1uB  1B2uA  1B3uX  3AgA  1B3gB  
    8    0.093314  (   34,   32)  2AgX  2B1uA  1B2uB  1B3uX  3AgB  1B3gA  
    9   -0.089207  (   54,   55)  2AgX  2B1uA  1B2uX  1B3uB  3AgA  1B2gB  
   10   -0.089207  (   55,   54)  2AgX  2B1uB  1B2uX  1B3uA  3AgB  1B2gA  
   11    0.089207  (   62,   63)  2AgX  2B1uA  1B2uB  1B3uX  3AgA  1B3gB  
   12    0.089207  (   63,   62)  2AgX  2B1uB  1B2uA  1B3uX  3AgB  1B3gA  
   13    0.070854  (    4,    5)  2AgA  2B1uX  1B2uX  1B3uX  3AgB  
   14    0.070854  (    5,    4)  2AgB  2B1uX  1B2uX  1B3uX  3AgA  
   15    0.067749  (    7,    7)  2AgX  1B2uX  3AgX  1B2gX  
   16    0.067749  (    8,    8)  2AgX  1B3uX  3AgX  1B3gX  
   17    0.063462  (   33,   34)  2AgX  2B1uX  1B2uA  1B3uB  1B2gA  1B3gB  
   18    0.063462  (   34,   33)  2AgX  2B1uX  1B2uB  1B3uA  1B2gB  1B3gA  
   19   -0.051604  (   55,   55)  2AgX  1B2uX  1B3uX  1B2gX  
   20   -0.051604  (   63,   63)  2AgX  1B2uX  1B3uX  1B3gX  




        Total Time (s)     %Time 		%Relative
 -----------------------------------------------------
 Read      0.002931
 Write     0.001458
 Sigma1    0.002868
 Sigma2    0.004985
 Sigma3    0.026535
 S1 Thread 0.000000
 S2 Thread 0.000000
 S3 Thread 0.000000

		 "A good bug is a dead bug" 

			 - Starship Troopers

		 "I didn't write FORTRAN.  That's the problem."

			 - Edward Valeev


*** tstop() called on QuickSilver.local at Mon Jan 23 14:52:20 2012
Module time:
	user time   =       0.43 seconds =       0.01 minutes
	system time =       0.02 seconds =       0.00 minutes
	total time  =          0 seconds =       0.00 minutes
Total time:
	user time   =       1.03 seconds =       0.02 minutes
	system time =       0.09 seconds =       0.00 minutes
	total time  =          1 seconds =       0.02 minutes

*** PSI4 exiting successfully. Buy a developer a beer!
