
    -----------------------------------------------------------------------
          Psi4: An Open-Source Ab Initio Electronic Structure Package
                               Psi4 1.1rc3.dev5 

                         Git: Rev {master} 3fbd859 


    R. M. Parrish, L. A. Burns, D. G. A. Smith, A. C. Simmonett,
    A. E. DePrince III, E. G. Hohenstein, U. Bozkaya, A. Yu. Sokolov,
    R. Di Remigio, R. M. Richard, J. F. Gonthier, A. M. James,
    H. R. McAlexander, A. Kumar, M. Saitow, X. Wang, B. P. Pritchard,
    P. Verma, H. F. Schaefer III, K. Patkowski, R. A. King, E. F. Valeev,
    F. A. Evangelista, J. M. Turney, T. D. Crawford, and C. D. Sherrill,
    J. Chem. Theory Comput. in press (2017).
    (doi: 10.1021/acs.jctc.7b00174)

    -----------------------------------------------------------------------


    Psi4 started on: Monday, 15 May 2017 03:40PM

    Process ID:  20455
    PSIDATADIR: /home/psilocaluser/gits/hrw-direct/objdir4/stage/usr/local/psi4/share/psi4
    Memory:     500.0 MiB
    Threads:    1
    
  ==> Input File <==

--------------------------------------------------------------------------
#! Test of SFX2C-1e on Water cc-pVDZ-DK.  In this test the Dirac
#! equation is solved in the uncontracted cc-pVDZ-DK basis.
#! The reference numbers are from Lan Cheng's implementation in Cfour

ref_nuc_energy =  8.316179709840201 #TEST
ref_nr_energy  = -76.00090503998709 #TEST 
ref_rel_energy = -76.05694013116914 #TEST

molecule h2o {
O
H 1 R
H 1 R 2 A

R = 2.0
A = 104.5
units bohr
}

set {
  basis cc-pVDZ-DK
  scf_type pk
}

testnr = energy('scf')
set relativistic x2c
testrel = energy('scf')

compare_values(ref_nuc_energy, h2o.nuclear_repulsion_energy(), 9, "Nuclear repulsion energy") #TEST
compare_values(ref_nr_energy,testnr, 9, "Non-relativistic SCF energy")                  #TEST
compare_values(ref_rel_energy,testrel, 9, "X2C relativistic SCF energy")                #TEST
--------------------------------------------------------------------------

*** tstart() called on psinet
*** at Mon May 15 15:40:13 2017

   => Loading Basis Set <=

    Name: CC-PVDZ-DK
    Role: ORBITAL
    Keyword: BASIS
    atoms 1   entry O          line   194 file /home/psilocaluser/gits/hrw-direct/objdir4/stage/usr/local/psi4/share/psi4/basis/cc-pvdz-dk.gbs 
    atoms 2-3 entry H          line    24 file /home/psilocaluser/gits/hrw-direct/objdir4/stage/usr/local/psi4/share/psi4/basis/cc-pvdz-dk.gbs 

    There are an even number of electrons - assuming singlet.
    Specify the multiplicity in the molecule input block.


         ---------------------------------------------------------
                                   SCF
            by Justin Turney, Rob Parrish, and Andy Simmonett
                              RHF Reference
                        1 Threads,    500 MiB Core
         ---------------------------------------------------------

  ==> Geometry <==

    Molecular point group: c2v
    Full point group: C2v

    Geometry (in Bohr), charge = 0, multiplicity = 1:

       Center              X                  Y                   Z               Mass       
    ------------   -----------------  -----------------  -----------------  -----------------
           O          0.000000000000     0.000000000000    -0.137032438620    15.994914619560
           H          0.000000000000    -1.581379147488     1.087402121448     1.007825032070
           H          0.000000000000     1.581379147488     1.087402121448     1.007825032070

  Running in c2v symmetry.

  Rotational constants: A =     22.43124  B =     11.94283  C =      7.79345 [cm^-1]
  Rotational constants: A = 672471.74591  B = 358036.89460  C = 233641.60779 [MHz]
  Nuclear repulsion =    8.316179709840204

  Charge       = 0
  Multiplicity = 1
  Electrons    = 10
  Nalpha       = 5
  Nbeta        = 5

  ==> Algorithm <==

  SCF Algorithm Type is PK.
  DIIS enabled.
  MOM disabled.
  Fractional occupation disabled.
  Guess Type is SAD.
  Energy threshold   = 1.00e-06
  Density threshold  = 1.00e-06
  Integral threshold = 0.00e+00

  ==> Primary Basis <==

  Basis Set: CC-PVDZ-DK
    Blend: CC-PVDZ-DK
    Number of shells: 12
    Number of basis function: 24
    Number of Cartesian functions: 25
    Spherical Harmonics?: true
    Max angular momentum: 2

  ==> Pre-Iterations <==

   -------------------------------------------------------
    Irrep   Nso     Nmo     Nalpha   Nbeta   Ndocc  Nsocc
   -------------------------------------------------------
     A1        11      11       0       0       0       0
     A2         2       2       0       0       0       0
     B1         4       4       0       0       0       0
     B2         7       7       0       0       0       0
   -------------------------------------------------------
    Total      24      24       5       5       5       0
   -------------------------------------------------------

  ==> Integral Setup <==

  Using in-core PK algorithm.
   Calculation information:
      Number of atoms:                   3
      Number of AO shells:              12
      Number of primitives:             32
      Number of atomic orbitals:        25
      Number of basis functions:        24

      Integral cutoff                 1.00e-12
      Number of threads:                 1

  Performing in-core PK
  Using 90300 doubles for integral storage.
  We computed 3081 shell quartets total.
  Whereas there are 3081 unique shell quartets.
  ==> DiskJK: Disk-Based J/K Matrices <==

    J tasked:                  Yes
    K tasked:                  Yes
    wK tasked:                  No
    Memory (MB):               375
    Schwarz Cutoff:          1E-12

    OpenMP threads:              1
  Minimum eigenvalue in the overlap matrix is 4.2330308956E-02.
  Using Symmetric Orthogonalization.

  SCF Guess: Superposition of Atomic Densities via on-the-fly atomic UHF.

  ==> Iterations <==

                        Total Energy        Delta E     RMS |[F,P]|

   @RHF iter   0:   -75.88326355613668   -7.58833e+01   1.00240e-01 
   @RHF iter   1:   -75.94050300710548   -5.72395e-02   2.43022e-02 
   @RHF iter   2:   -75.98571327233587   -4.52103e-02   1.40484e-02 DIIS
   @RHF iter   3:   -75.99942942352328   -1.37162e-02   2.60962e-03 DIIS
   @RHF iter   4:   -76.00074998886215   -1.32057e-03   7.88844e-04 DIIS
   @RHF iter   5:   -76.00089781250618   -1.47824e-04   1.48105e-04 DIIS
   @RHF iter   6:   -76.00090459188075   -6.77937e-06   3.76714e-05 DIIS
   @RHF iter   7:   -76.00090502958909   -4.37708e-07   6.29719e-06 DIIS
   @RHF iter   8:   -76.00090504001605   -1.04270e-08   5.79996e-07 DIIS

  ==> Post-Iterations <==

    Orbital Energies (a.u.)
    -----------------------

    Doubly Occupied:                                                      

       1A1   -20.560540     2A1    -1.291914     1B2    -0.649013  
       3A1    -0.548090     1B1    -0.487493  

    Virtual:                                                              

       4A1     0.166651     2B2     0.238618     3B2     0.726396  
       5A1     0.770681     6A1     1.169229     2B1     1.193042  
       4B2     1.262683     1A2     1.455234     7A1     1.466387  
       3B1     1.662680     5B2     1.835632     8A1     1.887202  
       6B2     2.231507     9A1     2.268668     4B1     3.201686  
       2A2     3.245504    10A1     3.378006    11A1     3.764315  
       7B2     4.032403  

    Final Occupation by Irrep:
             A1    A2    B1    B2 
    DOCC [     3,    0,    1,    1 ]

  Energy converged.

  @RHF Final Energy:   -76.00090504001605

   => Energetics <=

    Nuclear Repulsion Energy =              8.3161797098402044
    One-Electron Energy =                -121.5600712895574702
    Two-Electron Energy =                  37.2429865397012136
    DFT Exchange-Correlation Energy =       0.0000000000000000
    Empirical Dispersion Energy =           0.0000000000000000
    PCM Polarization Energy =               0.0000000000000000
    EFP Energy =                            0.0000000000000000
    Total Energy =                        -76.0009050400160504



Properties will be evaluated at   0.000000,   0.000000,   0.000000 Bohr

Properties computed using the SCF density matrix

  Nuclear Dipole Moment: (a.u.)
     X:     0.0000      Y:     0.0000      Z:     1.0785

  Electronic Dipole Moment: (a.u.)
     X:     0.0000      Y:     0.0000      Z:    -0.2365

  Dipole Moment: (a.u.)
     X:     0.0000      Y:     0.0000      Z:     0.8421     Total:     0.8421

  Dipole Moment: (Debye)
     X:     0.0000      Y:     0.0000      Z:     2.1403     Total:     2.1403


*** tstop() called on psinet at Mon May 15 15:40:14 2017
Module time:
	user time   =       0.42 seconds =       0.01 minutes
	system time =       0.02 seconds =       0.00 minutes
	total time  =          1 seconds =       0.02 minutes
Total time:
	user time   =       0.42 seconds =       0.01 minutes
	system time =       0.02 seconds =       0.00 minutes
	total time  =          1 seconds =       0.02 minutes

*** tstart() called on psinet
*** at Mon May 15 15:40:14 2017

   => Loading Basis Set <=

    Name: CC-PVDZ-DK
    Role: ORBITAL
    Keyword: BASIS
    atoms 1   entry O          line   194 file /home/psilocaluser/gits/hrw-direct/objdir4/stage/usr/local/psi4/share/psi4/basis/cc-pvdz-dk.gbs 
    atoms 2-3 entry H          line    24 file /home/psilocaluser/gits/hrw-direct/objdir4/stage/usr/local/psi4/share/psi4/basis/cc-pvdz-dk.gbs 


         ---------------------------------------------------------
                                   SCF
            by Justin Turney, Rob Parrish, and Andy Simmonett
                              RHF Reference
                        1 Threads,    500 MiB Core
         ---------------------------------------------------------

  ==> Geometry <==

    Molecular point group: c2v
    Full point group: C2v

    Geometry (in Bohr), charge = 0, multiplicity = 1:

       Center              X                  Y                   Z               Mass       
    ------------   -----------------  -----------------  -----------------  -----------------
           O          0.000000000000     0.000000000000    -0.137032438620    15.994914619560
           H          0.000000000000    -1.581379147488     1.087402121448     1.007825032070
           H          0.000000000000     1.581379147488     1.087402121448     1.007825032070

  Running in c2v symmetry.

  Rotational constants: A =     22.43124  B =     11.94283  C =      7.79345 [cm^-1]
  Rotational constants: A = 672471.74591  B = 358036.89460  C = 233641.60779 [MHz]
  Nuclear repulsion =    8.316179709840206

  Charge       = 0
  Multiplicity = 1
  Electrons    = 10
  Nalpha       = 5
  Nbeta        = 5

  ==> Algorithm <==

  SCF Algorithm Type is PK.
  DIIS enabled.
  MOM disabled.
  Fractional occupation disabled.
  Guess Type is SAD.
  Energy threshold   = 1.00e-06
  Density threshold  = 1.00e-06
  Integral threshold = 0.00e+00

  ==> Primary Basis <==

  Basis Set: CC-PVDZ-DK
    Blend: CC-PVDZ-DK
    Number of shells: 12
    Number of basis function: 24
    Number of Cartesian functions: 25
    Spherical Harmonics?: true
    Max angular momentum: 2

   => Loading Basis Set <=

    Name: (CC-PVDZ-DK AUX)
    Role: DECON
    Keyword: BASIS_RELATIVISTIC
    atoms 1   entry O          line   194 file /home/psilocaluser/gits/hrw-direct/objdir4/stage/usr/local/psi4/share/psi4/basis/cc-pvdz-dk.gbs func decontract
    atoms 2-3 entry H          line    24 file /home/psilocaluser/gits/hrw-direct/objdir4/stage/usr/local/psi4/share/psi4/basis/cc-pvdz-dk.gbs func decontract

  ==> Pre-Iterations <==

   -------------------------------------------------------
    Irrep   Nso     Nmo     Nalpha   Nbeta   Ndocc  Nsocc
   -------------------------------------------------------
     A1        11      11       0       0       0       0
     A2         2       2       0       0       0       0
     B1         4       4       0       0       0       0
     B2         7       7       0       0       0       0
   -------------------------------------------------------
    Total      24      24       5       5       5       0
   -------------------------------------------------------

 OEINTS: Using relativistic (X2C) overlap, kinetic, and potential integrals.
         ------------------------------------------------------------
         Spin-Free X2C Integrals at the One-Electron Level (SFX2C-1e)
                 by Prakash Verma and Francesco A. Evangelista
         ------------------------------------------------------------

  ==> X2C Options <==

    Computational Basis: CC-PVDZ-DK
    X2C Basis: (CC-PVDZ-DK AUX)
    The X2C Hamiltonian will be computed in the X2C Basis

    Comparing only 11 out of 21 elements of H_Dirac

    Comparing only 4 out of 6 elements of H_Dirac

    Comparing only 7 out of 11 elements of H_Dirac

    The 1-norm of |H_X2C - H_Dirac| is: 4.771668281274

    WARNING: The X2C and Dirac Hamiltonians have substatially different eigenvalues!
             This is probably caused by the recontraction of the basis set.

  ==> Integral Setup <==

  Using in-core PK algorithm.
   Calculation information:
      Number of atoms:                   3
      Number of AO shells:              12
      Number of primitives:             32
      Number of atomic orbitals:        25
      Number of basis functions:        24

      Integral cutoff                 1.00e-12
      Number of threads:                 1

  Performing in-core PK
  Using 90300 doubles for integral storage.
  We computed 3081 shell quartets total.
  Whereas there are 3081 unique shell quartets.
  ==> DiskJK: Disk-Based J/K Matrices <==

    J tasked:                  Yes
    K tasked:                  Yes
    wK tasked:                  No
    Memory (MB):               375
    Schwarz Cutoff:          1E-12

    OpenMP threads:              1
  Minimum eigenvalue in the overlap matrix is 4.2330308956E-02.
  Using Symmetric Orthogonalization.

  SCF Guess: Superposition of Atomic Densities via on-the-fly atomic UHF.

  ==> Iterations <==

                        Total Energy        Delta E     RMS |[F,P]|

   @RHF iter   0:   -75.93979082215819   -7.59398e+01   9.99973e-02 
   @RHF iter   1:   -75.99622953927577   -5.64387e-02   2.43818e-02 
   @RHF iter   2:   -76.04159856808384   -4.53690e-02   1.41294e-02 DIIS
   @RHF iter   3:   -76.05546395157729   -1.38654e-02   2.60799e-03 DIIS
   @RHF iter   4:   -76.05678507721927   -1.32113e-03   7.88683e-04 DIIS
   @RHF iter   5:   -76.05693288335100   -1.47806e-04   1.48289e-04 DIIS
   @RHF iter   6:   -76.05693968104069   -6.79769e-06   3.77406e-05 DIIS
   @RHF iter   7:   -76.05694012067605   -4.39635e-07   6.32098e-06 DIIS
   @RHF iter   8:   -76.05694013119682   -1.05208e-08   5.82405e-07 DIIS

  ==> Post-Iterations <==

    Orbital Energies (a.u.)
    -----------------------

    Doubly Occupied:                                                      

       1A1   -20.582876     2A1    -1.293678     1B2    -0.648807  
       3A1    -0.548072     1B1    -0.487432  

    Virtual:                                                              

       4A1     0.166367     2B2     0.238628     3B2     0.726397  
       5A1     0.770584     6A1     1.168759     2B1     1.192452  
       4B2     1.262312     1A2     1.455296     7A1     1.466211  
       3B1     1.662683     5B2     1.835572     8A1     1.886590  
       6B2     2.231140     9A1     2.268144     4B1     3.201657  
       2A2     3.245459    10A1     3.377880    11A1     3.763773  
       7B2     4.031989  

    Final Occupation by Irrep:
             A1    A2    B1    B2 
    DOCC [     3,    0,    1,    1 ]

  Energy converged.

  @RHF Final Energy:   -76.05694013119682

   => Energetics <=

    Nuclear Repulsion Energy =              8.3161797098402062
    One-Electron Energy =                -121.6245076804397343
    Two-Electron Energy =                  37.2513878394027032
    DFT Exchange-Correlation Energy =       0.0000000000000000
    Empirical Dispersion Energy =           0.0000000000000000
    PCM Polarization Energy =               0.0000000000000000
    EFP Energy =                            0.0000000000000000
    Total Energy =                        -76.0569401311968250



Properties will be evaluated at   0.000000,   0.000000,   0.000000 Bohr

Properties computed using the SCF density matrix

  Nuclear Dipole Moment: (a.u.)
     X:     0.0000      Y:     0.0000      Z:     1.0785

  Electronic Dipole Moment: (a.u.)
     X:     0.0000      Y:     0.0000      Z:    -0.2380

  Dipole Moment: (a.u.)
     X:     0.0000      Y:     0.0000      Z:     0.8405     Total:     0.8405

  Dipole Moment: (Debye)
     X:     0.0000      Y:     0.0000      Z:     2.1363     Total:     2.1363


*** tstop() called on psinet at Mon May 15 15:40:14 2017
Module time:
	user time   =       0.46 seconds =       0.01 minutes
	system time =       0.01 seconds =       0.00 minutes
	total time  =          0 seconds =       0.00 minutes
Total time:
	user time   =       0.90 seconds =       0.02 minutes
	system time =       0.03 seconds =       0.00 minutes
	total time  =          1 seconds =       0.02 minutes
	Nuclear repulsion energy..........................................PASSED
	Non-relativistic SCF energy.......................................PASSED
	X2C relativistic SCF energy.......................................PASSED

*** Psi4 exiting successfully. Buy a developer a beer!
