
    -----------------------------------------------------------------------
          Psi4: An Open-Source Ab Initio Electronic Structure Package
                               Psi4 1.1rc3.dev5 

                         Git: Rev {master} 3fbd859 


    R. M. Parrish, L. A. Burns, D. G. A. Smith, A. C. Simmonett,
    A. E. DePrince III, E. G. Hohenstein, U. Bozkaya, A. Yu. Sokolov,
    R. Di Remigio, R. M. Richard, J. F. Gonthier, A. M. James,
    H. R. McAlexander, A. Kumar, M. Saitow, X. Wang, B. P. Pritchard,
    P. Verma, H. F. Schaefer III, K. Patkowski, R. A. King, E. F. Valeev,
    F. A. Evangelista, J. M. Turney, T. D. Crawford, and C. D. Sherrill,
    J. Chem. Theory Comput. in press (2017).
    (doi: 10.1021/acs.jctc.7b00174)

    -----------------------------------------------------------------------


    Psi4 started on: Monday, 15 May 2017 03:37PM

    Process ID:  14879
    PSIDATADIR: /home/psilocaluser/gits/hrw-direct/objdir4/stage/usr/local/psi4/share/psi4
    Memory:     500.0 MiB
    Threads:    1
    
  ==> Input File <==

--------------------------------------------------------------------------
#! OMP3 cc-pVDZ gradient for the H2O molecule.

ref_vals = [                                                       #TEST
             [ 0.000000000000,  0.000000000000,  0.009542917802],  #TEST
             [ 0.000000000000,  0.000708837471, -0.004771458901],  #TEST
             [ 0.000000000000, -0.000708837471, -0.004771458901]   #TEST
           ]                                                       #TEST
ref = psi4.Matrix(3, 3)                                          #TEST
ref.set(ref_vals)

molecule h2o {
0 1
o
h 1 0.958
h 1 0.958 2 104.4776 
}

set {
  basis cc-pvdz
}

grad = gradient('omp3')

compare_matrices(ref, grad, 5, "Analytic gradients")  #TEST

--------------------------------------------------------------------------
gradient() will perform analytic gradient computation.

*** tstart() called on psinet
*** at Mon May 15 15:37:46 2017

   => Loading Basis Set <=

    Name: CC-PVDZ
    Role: ORBITAL
    Keyword: BASIS
    atoms 1   entry O          line   190 file /home/psilocaluser/gits/hrw-direct/objdir4/stage/usr/local/psi4/share/psi4/basis/cc-pvdz.gbs 
    atoms 2-3 entry H          line    20 file /home/psilocaluser/gits/hrw-direct/objdir4/stage/usr/local/psi4/share/psi4/basis/cc-pvdz.gbs 


         ---------------------------------------------------------
                                   SCF
            by Justin Turney, Rob Parrish, and Andy Simmonett
                              RHF Reference
                        1 Threads,    500 MiB Core
         ---------------------------------------------------------

  ==> Geometry <==

    Molecular point group: c2v
    Full point group: C2v

    Geometry (in Angstrom), charge = 0, multiplicity = 1:

       Center              X                  Y                   Z               Mass       
    ------------   -----------------  -----------------  -----------------  -----------------
           O          0.000000000000     0.000000000000    -0.065655108074    15.994914619560
           H          0.000000000000    -0.757365949175     0.520997104936     1.007825032070
           H          0.000000000000     0.757365949175     0.520997104936     1.007825032070

  Running in c2v symmetry.

  Rotational constants: A =     27.36310  B =     14.58041  C =      9.51197 [cm^-1]
  Rotational constants: A = 820325.16776  B = 437109.76453  C = 285161.58706 [MHz]
  Nuclear repulsion =    9.187386421477591

  Charge       = 0
  Multiplicity = 1
  Electrons    = 10
  Nalpha       = 5
  Nbeta        = 5

  ==> Algorithm <==

  SCF Algorithm Type is PK.
  DIIS enabled.
  MOM disabled.
  Fractional occupation disabled.
  Guess Type is SAD.
  Energy threshold   = 1.00e-10
  Density threshold  = 1.00e-10
  Integral threshold = 0.00e+00

  ==> Primary Basis <==

  Basis Set: CC-PVDZ
    Blend: CC-PVDZ
    Number of shells: 12
    Number of basis function: 24
    Number of Cartesian functions: 25
    Spherical Harmonics?: true
    Max angular momentum: 2

  ==> Pre-Iterations <==

   -------------------------------------------------------
    Irrep   Nso     Nmo     Nalpha   Nbeta   Ndocc  Nsocc
   -------------------------------------------------------
     A1        11      11       0       0       0       0
     A2         2       2       0       0       0       0
     B1         4       4       0       0       0       0
     B2         7       7       0       0       0       0
   -------------------------------------------------------
    Total      24      24       5       5       5       0
   -------------------------------------------------------

  ==> Integral Setup <==

  Using in-core PK algorithm.
   Calculation information:
      Number of atoms:                   3
      Number of AO shells:              12
      Number of primitives:             32
      Number of atomic orbitals:        25
      Number of basis functions:        24

      Integral cutoff                 1.00e-12
      Number of threads:                 1

  Performing in-core PK
  Using 90300 doubles for integral storage.
  We computed 3081 shell quartets total.
  Whereas there are 3081 unique shell quartets.
  ==> DiskJK: Disk-Based J/K Matrices <==

    J tasked:                  Yes
    K tasked:                  Yes
    wK tasked:                  No
    Memory (MB):               375
    Schwarz Cutoff:          1E-12

    OpenMP threads:              1
  Minimum eigenvalue in the overlap matrix is 3.4230868664E-02.
  Using Symmetric Orthogonalization.

  SCF Guess: Superposition of Atomic Densities via on-the-fly atomic UHF.

  ==> Iterations <==

                        Total Energy        Delta E     RMS |[F,P]|

   @RHF iter   0:   -75.97256065168074   -7.59726e+01   1.22438e-01 
   @RHF iter   1:   -75.98573532693823   -1.31747e-02   2.24624e-02 
   @RHF iter   2:   -76.01779129203713   -3.20560e-02   1.15275e-02 DIIS
   @RHF iter   3:   -76.02639380138490   -8.60251e-03   1.57478e-03 DIIS
   @RHF iter   4:   -76.02673258043416   -3.38779e-04   4.19002e-04 DIIS
   @RHF iter   5:   -76.02676026252492   -2.76821e-05   6.50554e-05 DIIS
   @RHF iter   6:   -76.02676107936563   -8.16841e-07   8.72973e-06 DIIS
   @RHF iter   7:   -76.02676109526719   -1.59016e-08   1.07317e-06 DIIS
   @RHF iter   8:   -76.02676109556992   -3.02734e-10   2.81671e-07 DIIS
   @RHF iter   9:   -76.02676109559394   -2.40163e-11   3.41263e-08 DIIS
   @RHF iter  10:   -76.02676109559408   -1.42109e-13   2.31856e-09 DIIS
   @RHF iter  11:   -76.02676109559415   -7.10543e-14   2.98132e-10 DIIS
   @RHF iter  12:   -76.02676109559417   -1.42109e-14   2.08463e-11 DIIS

  ==> Post-Iterations <==

    Orbital Energies (a.u.)
    -----------------------

    Doubly Occupied:                                                      

       1A1   -20.550579     2A1    -1.336336     1B2    -0.698827  
       3A1    -0.566506     1B1    -0.493105  

    Virtual:                                                              

       4A1     0.185436     2B2     0.256147     3B2     0.788656  
       5A1     0.853784     6A1     1.163587     2B1     1.200369  
       4B2     1.253383     7A1     1.444392     1A2     1.476182  
       3B1     1.674338     8A1     1.867382     5B2     1.934293  
       6B2     2.451040     9A1     2.488585     4B1     3.285193  
       2A2     3.338052    10A1     3.509722    11A1     3.864815  
       7B2     4.146867  

    Final Occupation by Irrep:
             A1    A2    B1    B2 
    DOCC [     3,    0,    1,    1 ]

  Energy converged.

  @RHF Final Energy:   -76.02676109559417

   => Energetics <=

    Nuclear Repulsion Energy =              9.1873864214775907
    One-Electron Energy =                -123.1375893554309471
    Two-Electron Energy =                  37.9234418383591958
    DFT Exchange-Correlation Energy =       0.0000000000000000
    Empirical Dispersion Energy =           0.0000000000000000
    PCM Polarization Energy =               0.0000000000000000
    EFP Energy =                            0.0000000000000000
    Total Energy =                        -76.0267610955941677



Properties will be evaluated at   0.000000,   0.000000,   0.000000 Bohr

Properties computed using the SCF density matrix

  Nuclear Dipole Moment: (a.u.)
     X:     0.0000      Y:     0.0000      Z:     0.9765

  Electronic Dipole Moment: (a.u.)
     X:     0.0000      Y:     0.0000      Z:    -0.1670

  Dipole Moment: (a.u.)
     X:     0.0000      Y:     0.0000      Z:     0.8095     Total:     0.8095

  Dipole Moment: (Debye)
     X:     0.0000      Y:     0.0000      Z:     2.0576     Total:     2.0576


*** tstop() called on psinet at Mon May 15 15:37:47 2017
Module time:
	user time   =       0.42 seconds =       0.01 minutes
	system time =       0.02 seconds =       0.00 minutes
	total time  =          1 seconds =       0.02 minutes
Total time:
	user time   =       0.42 seconds =       0.01 minutes
	system time =       0.02 seconds =       0.00 minutes
	total time  =          1 seconds =       0.02 minutes
 MINTS: Wrapper to libmints.
   by Justin Turney

   Calculation information:
      Number of threads:                 1
      Number of atoms:                   3
      Number of AO shells:              12
      Number of SO shells:               9
      Number of primitives:             32
      Number of atomic orbitals:        25
      Number of basis functions:        24

      Number of irreps:                  4
      Integral cutoff                 0.00e+00
      Number of functions per irrep: [  11    2    4    7 ]

 OEINTS: Overlap, kinetic, potential, dipole, and quadrupole integrals
         stored in file 35.

      Computing two-electron integrals...done
      Computed 11651 non-zero two-electron integrals.
        Stored in file 33.


*** tstart() called on psinet
*** at Mon May 15 15:37:47 2017


 ============================================================================== 
 ============================================================================== 
 ============================================================================== 

                       OMP3 (OO-MP3)   
              Program Written by Ugur Bozkaya,
              Latest Revision June 25, 2014.

 ============================================================================== 
 ============================================================================== 
 ============================================================================== 

	RMS orbital gradient is changed to :     1.00e-06
	MAX orbital gradient is changed to :     1.00e-04
	MO spaces per irreps... 

	IRREP   FC    OCC   VIR  FV 
	==============================
	  A1     0     3     8    0
	  A2     0     0     2    0
	  B1     0     1     3    0
	  B2     0     1     6    0
	==============================

	Computing MP2 energy using SCF MOs (Canonical MP2)... 
	============================================================================== 
	Nuclear Repulsion Energy (a.u.)    :     9.18738642147759
	SCF Energy (a.u.)                  :   -76.02676109559417
	REF Energy (a.u.)                  :   -76.02676109559425
	Alpha-Alpha Contribution (a.u.)    :    -0.02576501623988
	Alpha-Beta Contribution (a.u.)     :    -0.15248920680885
	Beta-Beta Contribution (a.u.)      :    -0.02576501623988
	Scaled_SS Correlation Energy (a.u.):    -0.01717667749325
	Scaled_OS Correlation Energy (a.u.):    -0.18298704817062
	SCS-MP2 Total Energy (a.u.)        :   -76.22692482125811
	SOS-MP2 Total Energy (a.u.)        :   -76.22499706444576
	SCSN-MP2 Total Energy (a.u.)       :   -76.11745395275861
	SCS-MP2-VDW Total Energy (a.u.)    :   -76.24771229654947
	SOS-PI-MP2 Total Energy (a.u.)     :   -76.24024598512663
	MP2 Correlation Energy (a.u.)      :    -0.20401923928860
	MP2 Total Energy (a.u.)            :   -76.23078033488285
	============================================================================== 


	Computing MP3 energy using SCF MOs (Canonical MP3)... 
	============================================================================== 
	Nuclear Repulsion Energy (a.u.)    :     9.18738642147759
	SCF Energy (a.u.)                  :   -76.02676109559417
	REF Energy (a.u.)                  :   -76.02676109559425
	Alpha-Alpha Contribution (a.u.)    :    -0.02386824220492
	Alpha-Beta Contribution (a.u.)     :    -0.16307021207014
	Beta-Beta Contribution (a.u.)      :    -0.02386824220492
	MP2.5 Correlation Energy (a.u.)    :    -0.20741296788437
	MP2.5 Total Energy (a.u.)          :   -76.23417406347853
	SCS-MP3 Total Energy (a.u.)        :   -76.22862168555595
	SOS-MP3 Total Energy (a.u.)        :   -76.22669392874360
	SCSN-MP3 Total Energy (a.u.)       :   -76.11915081705645
	SCS-MP3-VDW Total Energy (a.u.)    :   -76.24940916084731
	SOS-PI-MP3 Total Energy (a.u.)     :   -76.24194284942448
	3rd Order Energy (a.u.)            :    -0.00678745719136
	MP3 Correlation Energy (a.u.)      :    -0.21080669647997
	MP3 Total Energy (a.u.)            :   -76.23756779207422
	============================================================================== 


	Number of independent-pairs:  33

 ============================================================================== 
 ================ Performing OMP3 iterations... =============================== 
 ============================================================================== 
	            Minimizing MP3-L Functional 
	            --------------------------- 
 Iter       E_total           DE           RMS MO Grad      MAX MO Grad      RMS T2    
 ----    ---------------    ----------     -----------      -----------     ---------- 
   1     -76.2381451915     -5.77e-04       3.61e-05         5.08e-04        2.06e-07 
   2     -76.2381459709     -7.79e-07       1.57e-06         2.71e-05        7.86e-09 
   3     -76.2381459786     -7.76e-09       3.44e-07         5.24e-06        5.08e-10 

 ============================================================================== 
 ======================== OMP3 ITERATIONS ARE CONVERGED ======================= 
 ============================================================================== 

	Computing MP2 energy using optimized MOs... 
	============================================================================== 
	Nuclear Repulsion Energy (a.u.)    :     9.18738642147759
	SCF Energy (a.u.)                  :   -76.02676109559417
	REF Energy (a.u.)                  :   -76.02617008097641
	Alpha-Alpha Contribution (a.u.)    :    -0.02591374969522
	Alpha-Beta Contribution (a.u.)     :    -0.15358690630414
	Beta-Beta Contribution (a.u.)      :    -0.02591374969522
	Scaled_SS Correlation Energy (a.u.):    -0.01727583313015
	Scaled_OS Correlation Energy (a.u.):    -0.18430428756497
	SCS-MP2 Total Energy (a.u.)        :   -76.22775020167154
	SOS-MP2 Total Energy (a.u.)        :   -76.22583305917179
	SCSN-MP2 Total Energy (a.u.)       :   -76.11738647990359
	SCS-MP2-VDW Total Energy (a.u.)    :   -76.24867507074094
	SOS-PI-MP2 Total Energy (a.u.)     :   -76.24119174980221
	MP2 Correlation Energy (a.u.)      :    -0.21197589766605
	MP2 Total Energy (a.u.)            :   -76.23158448667100
	============================================================================== 


	Computing MP3 energy using optimized MOs... 
	============================================================================== 
	Nuclear Repulsion Energy (a.u.)    :     9.18738642147759
	SCF Energy (a.u.)                  :   -76.02676109559417
	REF Energy (a.u.)                  :   -76.02617008097641
	Alpha-Alpha Contribution (a.u.)    :    -0.02394060394948
	Alpha-Beta Contribution (a.u.)     :    -0.16409468976710
	Beta-Beta Contribution (a.u.)      :    -0.02394060394948
	MP2.5 Correlation Energy (a.u.)    :    -0.20810413706256
	MP2.5 Total Energy (a.u.)          :   -76.23486523265673
	SCS-MP3 Total Energy (a.u.)        :   -76.22939057466441
	SOS-MP3 Total Energy (a.u.)        :   -76.22747343216466
	SCSN-MP3 Total Energy (a.u.)       :   -76.11902685289645
	SCS-MP3-VDW Total Energy (a.u.)    :   -76.25031544373381
	SOS-PI-MP3 Total Energy (a.u.)     :   -76.24283212279508
	3rd Order Energy (a.u.)            :    -0.00656149197147
	MP3 Correlation Energy (a.u.)      :    -0.21197589766605
	MP3 Total Energy (a.u.)            :   -76.23814597864246
	============================================================================== 


	============================================================================== 
	================ OMP3 FINAL RESULTS ========================================== 
	============================================================================== 
	Nuclear Repulsion Energy (a.u.)    :     9.18738642147759
	SCF Energy (a.u.)                  :   -76.02676109559417
	REF Energy (a.u.)                  :   -76.02617008097641
	SCS-OMP3 Total Energy (a.u.)       :   -76.22939057466441
	SOS-OMP3 Total Energy (a.u.)       :   -76.22747343216466
	SCSN-OMP3 Total Energy (a.u.)      :   -76.11902685289645
	SCS-OMP3-VDW Total Energy (a.u.    :   -76.25031544373381
	SOS-PI-OMP3 Total Energy (a.u.)    :   -76.24283212279508
	OMP3 Correlation Energy (a.u.)     :    -0.21138488304830
	Eomp3 - Eref (a.u.)                :    -0.21197589766605
	OMP3 Total Energy (a.u.)           :   -76.23814597864246
	============================================================================== 

	Analytic gradient computation is starting...
	Computing G_abcd...
	Computing diagonal blocks of GFM...
	Writing particle density matrices and GFM to disk...
	Necessary information has been sent to DERIV, which will take care of the rest.

*** tstop() called on psinet at Mon May 15 15:37:47 2017
Module time:
	user time   =       0.08 seconds =       0.00 minutes
	system time =       0.10 seconds =       0.00 minutes
	total time  =          0 seconds =       0.00 minutes
Total time:
	user time   =       0.53 seconds =       0.01 minutes
	system time =       0.12 seconds =       0.00 minutes
	total time  =          1 seconds =       0.02 minutes
  Cartesian Displacement SALCs
  By SALC:
  Number of SALCs: 3, nirreps: 1
  Project out translations: False
  Project out rotations: False
	irrep = 0, ncomponent = 1
		0: atom 0, direction z, coef 1.000000
	irrep = 0, ncomponent = 2
		0: atom 1, direction y, coef 0.707107
		1: atom 2, direction y, coef -0.707107
	irrep = 0, ncomponent = 2
		0: atom 1, direction z, coef 0.707107
		1: atom 2, direction z, coef 0.707107

  By Atomic Center:
  Number of atomic centers: 3
   Atomic Center 0:
	x component, size = 0
	y component, size = 0
	z component, size = 1
		0: salc 0, irrep 0, coef 1.000000
   Atomic Center 1:
	x component, size = 0
	y component, size = 1
		0: salc 1, irrep 0, coef 0.707107
	z component, size = 1
		0: salc 2, irrep 0, coef 0.707107
   Atomic Center 2:
	x component, size = 0
	y component, size = 1
		0: salc 1, irrep 0, coef -0.707107
	z component, size = 1
		0: salc 2, irrep 0, coef 0.707107

    Molecular point group: c2v
    Full point group: C2v

    Geometry (in Bohr), charge = 0, multiplicity = 1:

       Center              X                  Y                   Z       
    ------------   -----------------  -----------------  -----------------
           O          0.000000000000     0.000000000000    -0.124070173485
           H          0.000000000000    -1.431214226314     0.984541844356
           H          0.000000000000     1.431214226314     0.984541844356

	Presorting MO-basis TPDM.
	Sorting File: MO TPDM (AA|AA) nbuckets = 1
	Starting first half-transformation.
	Sorting half-transformed TPDM.
	First half integral transformation complete.


  -Nuclear Repulsion Energy 1st Derivatives:
     Atom            X                  Y                   Z
    ------   -----------------  -----------------  -----------------
       1        0.000000000000     0.000000000000     2.989554195418
       2       -0.000000000000     2.051800004663    -1.494777097709
       3        0.000000000000    -2.051800004663    -1.494777097709


  -One-electron contribution to gradient:
     Atom            X                  Y                   Z
    ------   -----------------  -----------------  -----------------
       1        0.000000000000     0.000000000000    -7.483720758602
       2        0.000000000000    -4.993533815551     3.741860379301
       3       -0.000000000000     4.993533815551     3.741860379301


  -Lagrangian contribution to gradient:
     Atom            X                  Y                   Z
    ------   -----------------  -----------------  -----------------
       1        0.000000000000     0.000000000000     0.473030190618
       2       -0.000000000000     0.289111504324    -0.236515095309
       3        0.000000000000    -0.289111504324    -0.236515095309


  -Two-electron contribution to gradient:
     Atom            X                  Y                   Z
    ------   -----------------  -----------------  -----------------
       1        0.000000000000     0.000000000000     4.030679290368
       2       -0.000000000000     2.653331144035    -2.015339645184
       3        0.000000000000    -2.653331144035    -2.015339645184


  -Total gradient:
     Atom            X                  Y                   Z
    ------   -----------------  -----------------  -----------------
       1        0.000000000000     0.000000000000     0.009542917802
       2       -0.000000000000     0.000708837471    -0.004771458901
       3        0.000000000000    -0.000708837471    -0.004771458901

	Analytic gradients................................................PASSED

*** Psi4 exiting successfully. Buy a developer a beer!
