
    -----------------------------------------------------------------------
          Psi4: An Open-Source Ab Initio Electronic Structure Package
                               Psi4 1.1rc3.dev5 

                         Git: Rev {master} 3fbd859 


    R. M. Parrish, L. A. Burns, D. G. A. Smith, A. C. Simmonett,
    A. E. DePrince III, E. G. Hohenstein, U. Bozkaya, A. Yu. Sokolov,
    R. Di Remigio, R. M. Richard, J. F. Gonthier, A. M. James,
    H. R. McAlexander, A. Kumar, M. Saitow, X. Wang, B. P. Pritchard,
    P. Verma, H. F. Schaefer III, K. Patkowski, R. A. King, E. F. Valeev,
    F. A. Evangelista, J. M. Turney, T. D. Crawford, and C. D. Sherrill,
    J. Chem. Theory Comput. in press (2017).
    (doi: 10.1021/acs.jctc.7b00174)

    -----------------------------------------------------------------------


    Psi4 started on: Monday, 15 May 2017 03:37PM

    Process ID:  14741
    PSIDATADIR: /home/psilocaluser/gits/hrw-direct/objdir4/stage/usr/local/psi4/share/psi4
    Memory:     500.0 MiB
    Threads:    1
    
  ==> Input File <==

--------------------------------------------------------------------------
#! OCEPA cc-pVDZ energy for the H2O molecule.

refnuc      =  9.18738642147759 #TEST
refscf      = -76.02676109559437 #TEST
refocepa     = -76.24311146812991 #TEST

molecule h2o {
0 1
o
h 1 0.958
h 1 0.958 2 104.4776 
}

set {
  basis cc-pvdz
}
energy('olccd')

compare_values(refnuc, get_variable("NUCLEAR REPULSION ENERGY"), 6, "Nuclear Repulsion Energy (a.u.)");  #TEST
compare_values(refscf, get_variable("SCF TOTAL ENERGY"), 6, "SCF Energy (a.u.)");                        #TEST
compare_values(refocepa, get_variable("OLCCD TOTAL ENERGY"), 6, "OCEPA(0) Total Energy (a.u.)");               #TEST

--------------------------------------------------------------------------

*** tstart() called on psinet
*** at Mon May 15 15:37:27 2017

   => Loading Basis Set <=

    Name: CC-PVDZ
    Role: ORBITAL
    Keyword: BASIS
    atoms 1   entry O          line   190 file /home/psilocaluser/gits/hrw-direct/objdir4/stage/usr/local/psi4/share/psi4/basis/cc-pvdz.gbs 
    atoms 2-3 entry H          line    20 file /home/psilocaluser/gits/hrw-direct/objdir4/stage/usr/local/psi4/share/psi4/basis/cc-pvdz.gbs 


         ---------------------------------------------------------
                                   SCF
            by Justin Turney, Rob Parrish, and Andy Simmonett
                              RHF Reference
                        1 Threads,    500 MiB Core
         ---------------------------------------------------------

  ==> Geometry <==

    Molecular point group: c2v
    Full point group: C2v

    Geometry (in Angstrom), charge = 0, multiplicity = 1:

       Center              X                  Y                   Z               Mass       
    ------------   -----------------  -----------------  -----------------  -----------------
           O          0.000000000000     0.000000000000    -0.065655108074    15.994914619560
           H          0.000000000000    -0.757365949175     0.520997104936     1.007825032070
           H          0.000000000000     0.757365949175     0.520997104936     1.007825032070

  Running in c2v symmetry.

  Rotational constants: A =     27.36310  B =     14.58041  C =      9.51197 [cm^-1]
  Rotational constants: A = 820325.16776  B = 437109.76453  C = 285161.58706 [MHz]
  Nuclear repulsion =    9.187386421477591

  Charge       = 0
  Multiplicity = 1
  Electrons    = 10
  Nalpha       = 5
  Nbeta        = 5

  ==> Algorithm <==

  SCF Algorithm Type is PK.
  DIIS enabled.
  MOM disabled.
  Fractional occupation disabled.
  Guess Type is SAD.
  Energy threshold   = 1.00e-08
  Density threshold  = 1.00e-08
  Integral threshold = 0.00e+00

  ==> Primary Basis <==

  Basis Set: CC-PVDZ
    Blend: CC-PVDZ
    Number of shells: 12
    Number of basis function: 24
    Number of Cartesian functions: 25
    Spherical Harmonics?: true
    Max angular momentum: 2

  ==> Pre-Iterations <==

   -------------------------------------------------------
    Irrep   Nso     Nmo     Nalpha   Nbeta   Ndocc  Nsocc
   -------------------------------------------------------
     A1        11      11       0       0       0       0
     A2         2       2       0       0       0       0
     B1         4       4       0       0       0       0
     B2         7       7       0       0       0       0
   -------------------------------------------------------
    Total      24      24       5       5       5       0
   -------------------------------------------------------

  ==> Integral Setup <==

  Using in-core PK algorithm.
   Calculation information:
      Number of atoms:                   3
      Number of AO shells:              12
      Number of primitives:             32
      Number of atomic orbitals:        25
      Number of basis functions:        24

      Integral cutoff                 1.00e-12
      Number of threads:                 1

  Performing in-core PK
  Using 90300 doubles for integral storage.
  We computed 3081 shell quartets total.
  Whereas there are 3081 unique shell quartets.
  ==> DiskJK: Disk-Based J/K Matrices <==

    J tasked:                  Yes
    K tasked:                  Yes
    wK tasked:                  No
    Memory (MB):               375
    Schwarz Cutoff:          1E-12

    OpenMP threads:              1
  Minimum eigenvalue in the overlap matrix is 3.4230868664E-02.
  Using Symmetric Orthogonalization.

  SCF Guess: Superposition of Atomic Densities via on-the-fly atomic UHF.

  ==> Iterations <==

                        Total Energy        Delta E     RMS |[F,P]|

   @RHF iter   0:   -75.97256065168072   -7.59726e+01   1.22438e-01 
   @RHF iter   1:   -75.98573532693817   -1.31747e-02   2.24624e-02 
   @RHF iter   2:   -76.01779129203713   -3.20560e-02   1.15275e-02 DIIS
   @RHF iter   3:   -76.02639380138486   -8.60251e-03   1.57478e-03 DIIS
   @RHF iter   4:   -76.02673258043421   -3.38779e-04   4.19002e-04 DIIS
   @RHF iter   5:   -76.02676026252489   -2.76821e-05   6.50554e-05 DIIS
   @RHF iter   6:   -76.02676107936566   -8.16841e-07   8.72973e-06 DIIS
   @RHF iter   7:   -76.02676109526725   -1.59016e-08   1.07317e-06 DIIS
   @RHF iter   8:   -76.02676109556992   -3.02677e-10   2.81671e-07 DIIS
   @RHF iter   9:   -76.02676109559400   -2.40732e-11   3.41263e-08 DIIS
   @RHF iter  10:   -76.02676109559415   -1.56319e-13   2.31856e-09 DIIS

  ==> Post-Iterations <==

    Orbital Energies (a.u.)
    -----------------------

    Doubly Occupied:                                                      

       1A1   -20.550579     2A1    -1.336336     1B2    -0.698827  
       3A1    -0.566506     1B1    -0.493105  

    Virtual:                                                              

       4A1     0.185436     2B2     0.256147     3B2     0.788656  
       5A1     0.853784     6A1     1.163587     2B1     1.200369  
       4B2     1.253383     7A1     1.444392     1A2     1.476182  
       3B1     1.674338     8A1     1.867382     5B2     1.934293  
       6B2     2.451040     9A1     2.488585     4B1     3.285193  
       2A2     3.338052    10A1     3.509722    11A1     3.864815  
       7B2     4.146867  

    Final Occupation by Irrep:
             A1    A2    B1    B2 
    DOCC [     3,    0,    1,    1 ]

  Energy converged.

  @RHF Final Energy:   -76.02676109559415

   => Energetics <=

    Nuclear Repulsion Energy =              9.1873864214775907
    One-Electron Energy =                -123.1375893966028627
    Two-Electron Energy =                  37.9234418795311257
    DFT Exchange-Correlation Energy =       0.0000000000000000
    Empirical Dispersion Energy =           0.0000000000000000
    PCM Polarization Energy =               0.0000000000000000
    EFP Energy =                            0.0000000000000000
    Total Energy =                        -76.0267610955941535



Properties will be evaluated at   0.000000,   0.000000,   0.000000 Bohr

Properties computed using the SCF density matrix

  Nuclear Dipole Moment: (a.u.)
     X:     0.0000      Y:     0.0000      Z:     0.9765

  Electronic Dipole Moment: (a.u.)
     X:     0.0000      Y:     0.0000      Z:    -0.1670

  Dipole Moment: (a.u.)
     X:     0.0000      Y:     0.0000      Z:     0.8095     Total:     0.8095

  Dipole Moment: (Debye)
     X:     0.0000      Y:     0.0000      Z:     2.0576     Total:     2.0576


*** tstop() called on psinet at Mon May 15 15:37:27 2017
Module time:
	user time   =       0.40 seconds =       0.01 minutes
	system time =       0.02 seconds =       0.00 minutes
	total time  =          0 seconds =       0.00 minutes
Total time:
	user time   =       0.40 seconds =       0.01 minutes
	system time =       0.02 seconds =       0.00 minutes
	total time  =          0 seconds =       0.00 minutes
 MINTS: Wrapper to libmints.
   by Justin Turney

   Calculation information:
      Number of threads:                 1
      Number of atoms:                   3
      Number of AO shells:              12
      Number of SO shells:               9
      Number of primitives:             32
      Number of atomic orbitals:        25
      Number of basis functions:        24

      Number of irreps:                  4
      Integral cutoff                 0.00e+00
      Number of functions per irrep: [  11    2    4    7 ]

 OEINTS: Overlap, kinetic, potential, dipole, and quadrupole integrals
         stored in file 35.

      Computing two-electron integrals...done
      Computed 11651 non-zero two-electron integrals.
        Stored in file 33.


*** tstart() called on psinet
*** at Mon May 15 15:37:27 2017



  Options:
  ----------------------------------------------------------------------------
  ACTIVE                      => [  ]             
  BASIS_RELATIVISTIC          => (empty)          
  BENCH                       => 0                
  CACHELEVEL                  => 2                
  CCL_ENERGY                  => FALSE            
  CC_DIIS_MAX_VECS            => 6                
  CC_DIIS_MIN_VECS            => 2                
  CC_MAXITER                  => 50               
  CC_TYPE                     => CONV             
  CEPA_OS_SCALE               => 1.27             
  CEPA_SOS_SCALE              => 1.3              
  CEPA_SS_SCALE               => 1.13             
  CEPA_TYPE                   => CEPA0            
  CI_TYPE                     => CONV             
  CUBEPROP_BASIS_FUNCTIONS    => [  ]             
  CUBEPROP_FILEPATH           => .                
  CUBEPROP_ORBITALS           => [  ]             
  CUBEPROP_TASKS              => [  ]             
  CUBIC_BASIS_TOLERANCE       => 1e-12            
  CUBIC_BLOCK_MAX_POINTS      => 1000             
  CUBIC_GRID_OVERAGE          => [  ]             
  CUBIC_GRID_SPACING          => [  ]             
  CUTOFF                      => 14               
  DEBUG                       => 0                
  DERTYPE                     => NONE             
  DF_BASIS_CC                 => (empty)          
  DIE_IF_NOT_CONVERGED        => TRUE             
  DKH_ORDER                   => 2                
  DOCC                        => [  ]             
  DO_DIIS                     => TRUE             
  DO_LEVEL_SHIFT              => TRUE             
  DO_SCS                      => FALSE           !
  DO_SOS                      => FALSE           !
  E3_SCALE                    => 0.25             
  EA_POLES                    => FALSE            
  EKT_EA                      => FALSE            
  EKT_IP                      => FALSE            
  EP_EA_POLES                 => FALSE            
  EP_IP_POLES                 => FALSE            
  EP_MAXITER                  => 30               
  EXTERNAL_POTENTIAL_SYMMETRY => FALSE            
  E_CONVERGENCE               => 1e-06           !
  FREEZE_CORE                 => FALSE            
  FROZEN_DOCC                 => [  ]             
  FROZEN_UOCC                 => [  ]             
  INTEGRAL_PACKAGE            => LIBINT           
  IP_POLES                    => FALSE            
  LEVEL_SHIFT                 => 0.02             
  LINEQ_SOLVER                => CDGESV           
  LITERAL_CFOUR               => (empty)          
  MAT_NUM_COLUMN_PRINT        => 5                
  MAX_MOGRAD_CONVERGENCE      => 0.001            
  MOGRAD_DAMPING              => 1                
  MOLDEN_WITH_VIRTUAL         => TRUE             
  MO_DIIS_NUM_VECS            => 6                
  MO_MAXITER                  => 50               
  MO_READ                     => FALSE            
  MO_STEP_MAX                 => 0.5              
  MO_WRITE                    => FALSE            
  MP2_OS_SCALE                => 1.2              
  MP2_SOS_SCALE               => 1.3              
  MP2_SOS_SCALE2              => 1.2              
  MP2_SS_SCALE                => 0.333333         
  MP2_TYPE                    => DF               
  MP_TYPE                     => CONV             
  NAT_ORBS                    => FALSE            
  NUM_FROZEN_DOCC             => 0                
  NUM_FROZEN_UOCC             => 0                
  OCC_ORBS_PRINT              => FALSE            
  OEPROP                      => FALSE            
  OPT_METHOD                  => ORB_RESP         
  ORB_OPT                     => TRUE            !
  ORB_RESP_SOLVER             => PCG              
  ORTH_TYPE                   => MGS              
  PCG_BETA_TYPE               => FLETCHER_REEVES  
  PCG_CONVERGENCE             => 1e-06            
  PCG_MAXITER                 => 30               
  PCM                         => FALSE            
  PCM_CC_TYPE                 => PTE              
  PCM_SCF_TYPE                => TOTAL            
  PRINT                       => 1                
  PRINT_NOONS                 => 3                
  PROPERTIES                  => [  ]             
  PROPERTIES_ORIGIN           => [  ]             
  PUREAM                      => TRUE             
  QC_MODULE                   => (empty)          
  RAS1                        => [  ]             
  RAS2                        => [  ]             
  RAS3                        => [  ]             
  RAS4                        => [  ]             
  RELATIVISTIC                => NO               
  RELAXED                     => TRUE             
  RESTRICTED_DOCC             => [  ]             
  RESTRICTED_UOCC             => [  ]             
  RMS_MOGRAD_CONVERGENCE      => 1e-06            
  R_CONVERGENCE               => 1e-05            
  SCS_TYPE                    => SCS              
  SOCC                        => [  ]             
  SOS_TYPE                    => SOS              
  SYMMETRIZE                  => TRUE             
  TPDM_ABCD_TYPE              => DIRECT           
  UNITS                       => ANGSTROMS        
  WFN                         => SCF              
  WFN_TYPE                    => OCEPA           !
  WRITER_FILE_LABEL           => (empty)          


 ============================================================================== 
 ============================================================================== 
 ============================================================================== 

                       OCEPA (OO-CEPA)   
              Program Written by Ugur Bozkaya,
              Latest Revision June 25, 2014.

 ============================================================================== 
 ============================================================================== 
 ============================================================================== 

	RMS orbital gradient is changed to :     1.00e-05
	MAX orbital gradient is changed to :     3.16e-04
	MO spaces per irreps... 

	IRREP   FC    OCC   VIR  FV 
	==============================
	  A1     0     3     8    0
	  A2     0     0     2    0
	  B1     0     1     3    0
	  B2     0     1     6    0
	==============================

	Computing MP2 energy using SCF MOs (Canonical MP2)... 
	============================================================================== 
	Nuclear Repulsion Energy (a.u.)    :     9.18738642147759
	SCF Energy (a.u.)                  :   -76.02676109559415
	REF Energy (a.u.)                  :   -76.02676109559420
	Alpha-Alpha Contribution (a.u.)    :    -0.02576501621996
	Alpha-Beta Contribution (a.u.)     :    -0.15248920674412
	Beta-Beta Contribution (a.u.)      :    -0.02576501621996
	Scaled_SS Correlation Energy (a.u.):    -0.01717667747998
	Scaled_OS Correlation Energy (a.u.):    -0.18298704809295
	SCS-MP2 Total Energy (a.u.)        :   -76.22692482116712
	SOS-MP2 Total Energy (a.u.)        :   -76.22499706436156
	SCSN-MP2 Total Energy (a.u.)       :   -76.11745395268846
	SCS-MP2-VDW Total Energy (a.u.)    :   -76.24771229644664
	SOS-PI-MP2 Total Energy (a.u.)     :   -76.24024598503597
	MP2 Correlation Energy (a.u.)      :    -0.20401923918405
	MP2 Total Energy (a.u.)            :   -76.23078033477825
	============================================================================== 

	Number of independent-pairs:  33

 ============================================================================== 
 ================ Performing OCEPA iterations... ============================== 
 ============================================================================== 
	            Minimizing CEPA-L Functional 
	            --------------------------- 
 Iter       E_total           DE           RMS MO Grad      MAX MO Grad      RMS T2    
 ----    ---------------    ----------     -----------      -----------     ---------- 
   1     -76.2381351095     -7.35e-03       2.07e-04         3.57e-03        1.07e-05 
   2     -76.2415668178     -3.43e-03       7.15e-05         1.02e-03        4.11e-06 
   3     -76.2425075263     -9.41e-04       2.77e-05         4.14e-04        1.68e-06 
   4     -76.2428634867     -3.56e-04       1.15e-05         1.85e-04        7.48e-07 
   5     -76.2430049685     -1.41e-04       5.21e-06         8.06e-05        3.42e-07 

 ============================================================================== 
 ======================== OCEPA ITERATIONS ARE CONVERGED ====================== 
 ============================================================================== 

	Orbitals are optimized now.
	Switching to the standard CEPA computation... 

  
 ============================================================================== 
 ================ Performing CEPA iterations... =============================== 
 ============================================================================== 

  Iter    E_corr           E_total            DE           T2 RMS        
  ----   -------------    ---------------    ----------   ----------    
   1     -0.2163036980    -76.2430647936     -5.98e-05     1.58e-07 
   2     -0.2163521035    -76.2431131991     -4.84e-05     7.48e-08 
   3     -0.2163501470    -76.2431112426      1.96e-06     5.76e-09 
   4     -0.2163503602    -76.2431114558     -2.13e-07     6.39e-10 

 ============================================================================== 
 ======================== CEPA ITERATIONS ARE CONVERGED ======================= 
 ============================================================================== 

	============================================================================== 
	================ OCEPA FINAL RESULTS ========================================= 
	============================================================================== 
	Nuclear Repulsion Energy (a.u.)    :     9.18738642147759
	SCF Energy (a.u.)                  :   -76.02676109559415
	REF Energy (a.u.)                  :   -76.02605950430771
	SCS-OCEPA(0) Total Energy (a.u.)   :   -76.29527599003571
	SOS-OCEPA(0) Total Energy (a.u.)   :   -76.24843175265568
	OCEPA(0) Correlation Energy (a.u.) :    -0.21635036016194
	Eocepa - Eref (a.u.)               :    -0.21705195144838
	OCEPA(0) Total Energy (a.u.)       :   -76.24311145575609
	============================================================================== 


*** tstop() called on psinet at Mon May 15 15:37:27 2017
Module time:
	user time   =       0.09 seconds =       0.00 minutes
	system time =       0.11 seconds =       0.00 minutes
	total time  =          0 seconds =       0.00 minutes
Total time:
	user time   =       0.52 seconds =       0.01 minutes
	system time =       0.13 seconds =       0.00 minutes
	total time  =          0 seconds =       0.00 minutes
	Nuclear Repulsion Energy (a.u.)...................................PASSED
	SCF Energy (a.u.).................................................PASSED
	OCEPA(0) Total Energy (a.u.)......................................PASSED

*** Psi4 exiting successfully. Buy a developer a beer!
