    -----------------------------------------------------------------------
          PSI4: An Open-Source Ab Initio Electronic Structure Package
                              PSI 4.0.0-alpha Driver
    T. D. Crawford, C. D. Sherrill, E. F. Valeev, J. T. Fermann, R. A. King,
    M. L. Leininger, S. T. Brown, C. L. Janssen, E. T. Seidl, J. P. Kenny,
    and W. D. Allen, J. Comput. Chem. 28, 1610-1616 (2007)

                         Additional Contributions by
    Francesco Evangelista, Andrew Simmonett, Justin Turney, Jeremiah Wilke
    -----------------------------------------------------------------------


    Using LocalCommunicator (Number of processes = 1)

    Memory level set to 256.000 MB

  ==> Input File <==

--------------------------------------------------------------------------
molecule hof {
          O          -0.947809457408    -0.132934425181     0.000000000000
          H          -1.513924046286     1.610489987673     0.000000000000
          F           0.878279174340     0.026485523618     0.000000000000
unit bohr
noreorient
}

set {
    wfn ccsd
    dertype response
    basis cc-pVDZ
    mu_irreps = [0, 0, 1]
}

response('ccsd')

clean()
--------------------------------------------------------------------------

*** tstart() called on ganymede.local
*** at Sat Jun 25 19:10:23 2011

	There are an even number of electrons - assuming singlet.
	Specify the multiplicity with the MULTP option in the
	input if this is incorrect


         ---------------------------------------------------------
                                   SCF
            by Justin Turney, Rob Parrish, and Andy Simmonnett
                              RHF Reference
                        1 Threads,    256 MiB Core
         ---------------------------------------------------------

  ==> Geometry <==

    Molecular point group: cs

    Geometry (in Bohr), charge = 0, multiplicity = 1:

       Center              X                  Y                   Z       
    ------------   -----------------  -----------------  -----------------
           O         -0.947809457408    -0.132934425181     0.000000000000
           H         -1.513924046286     1.610489987673     0.000000000000
           F          0.878279174340     0.026485523618     0.000000000000

    Number of unique atoms: 3

    Atoms equivalency:
       unique atom 0: 0 
       unique atom 1: 1 
       unique atom 2: 2 

  Running in cs symmetry.

  Nuclear repulsion =   46.780362058359806

  Charge       = 0
  Multiplicity = 1
  Electrons    = 18
  Nalpha       = 9
  Nbeta        = 9

  ==> Algorithm <==

  SCF Algorithm Type is PK.
  DIIS enabled.
  MOM disabled.
  Guess Type is CORE.
  Energy threshold   = 1.00e-10
  Density threshold  = 1.00e-08
  Integral threshold = 0.00e+00

  ==> Primary Basis: CC-PVDZ <==

  Basis Set
    Number of shells: 15
    Number of basis function: 33
    Number of Cartesian functions: 35
    Spherical Harmonics?: true
    Max angular momentum: 2

  ==> Pre-Iterations <==

  Minimum eigenvalue in the overlap matrix is 1.1480368199E-02.
  Using Symmetric Orthogonalization.
  SCF Guess: Core (One-Electron) Hamiltonian.

  Initial RHF energy:  -133.10619662228319

   -------------------------------------------------------
    Irrep   Nso     Nmo     Nalpha   Nbeta   Ndocc  Nsocc
   -------------------------------------------------------
     A'        24      24       7       7       7       0
     A"         9       9       2       2       2       0
   -------------------------------------------------------
    Total      33      33       9       9       9       0
   -------------------------------------------------------

  ==> Integral Setup <==

 MINTS: Wrapper to libmints.
   by Justin Turney

   Calculation information:
      Number of atoms:                   3
      Number of AO shells:              15
      Number of SO shells:              15
      Number of primitives:             49
      Number of atomic orbitals:        35
      Number of basis functions:        33

      Number of irreps:                  2
      Number of functions per irrep: [  24    9 ]

      Computing integrals...done

      Computed 78700 non-zero integrals.

  ==> Iterations <==

                        Total Energy        Delta E     Density RMS

   @RHF iter   1:  -159.89903886265782   -2.67928e+01   0.00000e+00  
	Occupation by irrep:
	         A'    A" 
	DOCC [     8,    1 ]
   @RHF iter   2:  -161.87005159720272   -1.97101e+00   2.86011e-01 DIIS
	Occupation by irrep:
	         A'    A" 
	DOCC [     7,    2 ]
   @RHF iter   3:  -174.13894832477388   -1.22689e+01   2.46076e-01 DIIS
   @RHF iter   4:  -174.39661955605192   -2.57671e-01   1.68208e-02 DIIS
   @RHF iter   5:  -174.41501884406284   -1.83993e-02   4.76869e-03 DIIS
   @RHF iter   6:  -174.41784376455035   -2.82492e-03   2.13077e-03 DIIS
   @RHF iter   7:  -174.41837739415624   -5.33630e-04   1.13021e-03 DIIS
   @RHF iter   8:  -174.41843153805792   -5.41439e-05   4.74213e-04 DIIS
   @RHF iter   9:  -174.41843292019837   -1.38214e-06   7.43395e-05 DIIS
   @RHF iter  10:  -174.41843300059753   -8.03992e-08   2.07694e-05 DIIS
   @RHF iter  11:  -174.41843300157728   -9.79753e-10   1.80913e-06 DIIS
   @RHF iter  12:  -174.41843300162273   -4.54463e-11   2.54362e-07 DIIS
   @RHF iter  13:  -174.41843300162486   -2.13163e-12   8.65684e-08 DIIS
   @RHF iter  14:  -174.41843300162472   1.42109e-13   1.45291e-08 DIIS

  ==> Post-Iterations <==

	Orbital Energies (a.u.)
	-----------------------

	Doubly Occupied:                                                      

	   1A'   -26.330356     2A'   -20.627725     3A'    -2.082395  
	   4A'    -1.191294     5A'    -0.971697     1A"    -0.924953  
	   6A'    -0.850985     7A'    -0.460395     2A"    -0.380150  

	Virtual:                                                              

	   8A'     0.192183     9A'     0.648601    10A'     0.823611  
	   3A"     1.119958    11A'     1.143363    12A'     1.228844  
	  13A'     1.367723    14A'     1.461132     4A"     1.471205  
	   5A"     1.535571    15A'     1.667967    16A'     1.769476  
	  17A'     2.310638    18A'     2.700605     6A"     2.776264  
	  19A'     3.034541     7A"     3.108650    20A'     3.654401  
	  21A'     3.975079     8A"     4.008294    22A'     4.151683  
	   9A"     4.827587    23A'     4.882340    24A'     5.266361  

	Final Occupation by Irrep:
	         A'    A" 
	DOCC [     7,    2 ]

  Energy converged.

  @RHF Final Energy:  -174.41843300162472

  ==> Properties <==

 OEPROP: One-electron properties/analyses.
  by Rob Parrish and Justin Turney.
  built on LIBMINTS.

 Dipole Moment: (a.u.)
     X:    -0.0731      Y:     0.6110      Z:     0.0000     Total:     0.6154

 Dipole Moment: (Debye)
     X:    -0.1857      Y:     1.5531      Z:     0.0000     Total:     1.5642


  Saving occupied orbitals to File 100.

*** tstop() called on ganymede.local at Sat Jun 25 19:10:24 2011
	user time   =       0.31 seconds =       0.01 minutes
	system time =       0.06 seconds =       0.00 minutes
	total time  =          1 seconds =       0.02 minutes

*** tstart() called on ganymede.local
*** at Sat Jun 25 19:10:24 2011


	**************************************************
	* TRANSQT2: Program to transform integrals from  *
	*           the SO basis to the MO basis.        *
	*                                                *
	*            Daniel, David, & Justin             *
	**************************************************


*** tstart() called on ganymede.local
*** at Sat Jun 25 19:10:24 2011


			**************************
			*                        *
			*         CCSORT         *
			*                        *
			**************************


	Input parameters:
	-----------------
	Wave function   =	CCSD
	Reference wfn   =	RHF
	Derivative      =	Response
	Memory (Mbytes) =	256.0
	AO Basis        =	NONE
	Make (ab|cd)    =	True
	Make unpacked (ab|cd) =	False
	Cache Level     =	2
	Cache Type      =	LRU
	Local CC        =     No


	Chkpt Parameters:
	--------------------
	Number of irreps     = 2
	Number of MOs        = 33
	Number of active MOs = 33

	Label	# MOs	# FZDC	# DOCC	# SOCC	# VIRT	# FZVR
	-----	-----	------	------	------	------	------
	 A'	   24	    0	    7	    0	    17	    0
	 A"	   9	    0	    2	    0	    7	    0

	Nuclear Rep. energy (chkpt) =     46.78036205835981
	SCF energy          (chkpt) =   -174.41843300162472

	Size of irrep 0 of <ab|cd> integrals:      0.114 (MW) /      0.914 (MB)
	Size of irrep 1 of <ab|cd> integrals:      0.057 (MW) /      0.453 (MB)
	Total:                                     0.171 (MW) /      1.367 (MB)

	Size of irrep 0 of <ia|bc> integrals:      0.045 (MW) /      0.360 (MB)
	Size of irrep 1 of <ia|bc> integrals:      0.020 (MW) /      0.158 (MB)
	Total:                                     0.065 (MW) /      0.518 (MB)

	Size of irrep 0 of tijab amplitudes:       0.018 (MW) /      0.143 (MB)
	Size of irrep 1 of tijab amplitudes:       0.007 (MW) /      0.053 (MB)
	Total:                                     0.025 (MW) /      0.197 (MB)


	Sorting File: A <ij|kl> nbuckets = 1
	Sorting File: B(+) <ab|cd> nbuckets = 1
	Sorting File: C <ia|jb> nbuckets = 1
	Sorting File: D <ij|ab> nbuckets = 1
	Sorting File: E <ai|jk> nbuckets = 1
	Sorting File: F <ia|bc> nbuckets = 1
	One-electron energy          =   -334.75769231860534
	Two-electron (AA) energy     =     47.26858977470961
	Two-electron (BB) energy     =     47.26858977470961
	Two-electron (AB) energy     =     66.29030748391142
	Two-electron energy          =    113.55889725862103
	Frozen-core energy (transqt) =      0.00000000000000
	Reference energy             =   -174.41843300162452

*** tstop() called on ganymede.local at Sat Jun 25 19:10:24 2011
	user time   =       0.39 seconds =       0.01 minutes
	system time =       0.15 seconds =       0.00 minutes
	total time  =          0 seconds =       0.00 minutes

*** tstart() called on ganymede.local
*** at Sat Jun 25 19:10:24 2011

			**************************
			*                        *
			*        CCENERGY        *
			*                        *
			**************************

	Nuclear Rep. energy (chkpt)   =   46.780362058359806
	SCF energy          (chkpt)   = -174.418433001624720
	Reference energy    (file100) = -174.418433001624521

	Input parameters:
	-----------------
	Wave function   =     CCSD
	Reference wfn   =     RHF
	Memory (Mbytes) =     256.0
	Maxiter         =     50
	Convergence     =     1.0e-10
	Restart         =     No
	DIIS            =     Yes
	AO Basis        =     NONE
	ABCD            =     NEW
	Cache Level     =     2
	Cache Type      =     LRU
	Print Level     =     0
	Num. of threads =     1
	# Amps to Print =     10
	Print MP2 Amps? =     No
	Analyze T2 Amps =     No
	Print Pair Ener =     No
	Local CC        =     No
	SCS-MP2         =     False
	SCSN-MP2        =     False
	SCS-CCSD        =     False

	            Solving CC Amplitude Equations
	            ------------------------------
  Iter             Energy              RMS        T1Diag      D1Diag    New D1Diag
  ----     ---------------------    ---------   ----------  ----------  ----------
     0        -0.356636240726635    0.000e+00    0.000000    0.000000    0.000000
     1        -0.362752063098802    3.144e-02    0.004275    0.011894    0.011894
     2        -0.368196197119331    1.020e-02    0.004675    0.013297    0.013297
     3        -0.368909989053916    3.691e-03    0.005274    0.015965    0.015965
     4        -0.368843223250080    1.064e-03    0.005417    0.016790    0.016790
     5        -0.368847102126305    5.172e-04    0.005511    0.017384    0.017384
     6        -0.368845295153107    1.896e-04    0.005559    0.017671    0.017671
     7        -0.368842607498801    4.221e-05    0.005566    0.017712    0.017712
     8        -0.368842991731538    9.726e-06    0.005568    0.017722    0.017722
     9        -0.368843083956378    1.805e-06    0.005568    0.017722    0.017722
    10        -0.368843084633750    4.602e-07    0.005568    0.017723    0.017723
    11        -0.368843099035879    1.246e-07    0.005568    0.017723    0.017723
    12        -0.368843101812295    3.400e-08    0.005568    0.017723    0.017723
    13        -0.368843102945219    8.788e-09    0.005568    0.017723    0.017723
    14        -0.368843103081472    2.167e-09    0.005568    0.017723    0.017723
    15        -0.368843103075482    9.026e-10    0.005568    0.017723    0.017723
    16        -0.368843103064292    3.214e-10    0.005568    0.017723    0.017723
    17        -0.368843103060978    1.157e-10    0.005568    0.017723    0.017723
    18        -0.368843103062227    3.373e-11    0.005568    0.017723    0.017723

	Iterations converged.


	Largest TIA Amplitudes:
	          6   0        -0.0137314029
	          6   2         0.0064752660
	          7  17         0.0058546055
	          5   0         0.0054831010
	          6   9        -0.0050129181
	          3   1        -0.0049539838
	          8  17        -0.0043004430
	          6   1         0.0041980318
	          4   9        -0.0039633121
	          7  18         0.0038967923

	Largest TIjAb Amplitudes:
	  8   8  17  17        -0.0347803136
	  6   6   2   2        -0.0346572616
	  6   6   0   0        -0.0242680503
	  6   6   0   2         0.0221026076
	  6   6   2   0         0.0221026076
	  8   8  18  18        -0.0216499642
	  7   7  18  18        -0.0211241948
	  7   8  17  17         0.0203462181
	  8   7  17  17         0.0203462181
	  7   8  18  18        -0.0189838363

	SCF energy       (chkpt)              = -174.418433001624720
	Reference energy (file100)            = -174.418433001624521

	Opposite-spin MP2 correlation energy  =   -0.260477904536018
	Same-spin MP2 correlation energy      =   -0.096158336190617
	MP2 correlation energy                =   -0.356636240726635
      * MP2 total energy                      = -174.775069242351151

	Opposite-spin CCSD correlation energy =   -0.280899925871276
	Same-spin CCSD correlation energy     =   -0.087943177197539
	CCSD correlation energy               =   -0.368843103062227
      * CCSD total energy                     = -174.787276104686754


*** tstop() called on ganymede.local at Sat Jun 25 19:10:30 2011
	user time   =       1.39 seconds =       0.02 minutes
	system time =       0.86 seconds =       0.01 minutes
	total time  =          6 seconds =       0.10 minutes

*** tstart() called on ganymede.local
*** at Sat Jun 25 19:10:30 2011


			**************************
			*                        *
			*         CCHBAR         *
			*                        *
			**************************


*** tstop() called on ganymede.local at Sat Jun 25 19:10:30 2011
	user time   =       1.46 seconds =       0.02 minutes
	system time =       0.93 seconds =       0.02 minutes
	total time  =          0 seconds =       0.00 minutes

*** tstart() called on ganymede.local
*** at Sat Jun 25 19:10:30 2011


			**************************
			*        CCLAMBDA        *
			**************************


	Nuclear Rep. energy (chkpt)   =   46.780362058359806
	Reference           (chkpt)   = 0
	SCF energy          (chkpt)   = -174.418433001624720
	Reference energy    (CC_INFO) = -174.418433001624521
	CCSD energy         (CC_INFO) =   -0.368843103062227
	Total CCSD energy   (CC_INFO) = -174.787276104686754

	Input parameters:
	-----------------
	Maxiter       =      50
	Convergence   = 1.0e-10
	Restart       =     No
	Cache Level   =     2
	Model III     =     No
	DIIS          =     Yes
	AO Basis      =     No
	ABCD            =     NEW
	Local CC        =     No
	Paramaters for left-handed eigenvectors:
	    Irr   Root  Ground-State?    EOM energy        R0
	  1   0     0        Yes       0.0000000000   1.0000000000
	Labels for eigenvector 1:
	LIA 0 -1, Lia 0 -1, LIJAB 0 -1, Lijab 0 -1, LIjAb 0 -1, 2LIjAb - LIjbA 0 -1
	Deleting old CC_LAMBDA data.
	Symmetry of left-hand state: A'
	Symmetry of left-hand eigenvector: A'

	          Solving Lambda Equations
	          ------------------------
	Iter     PseudoEnergy or Norm         RMS  
	----     ---------------------     --------
	   0        -0.368917658983441    0.000e+00
	   1        -0.364932523096784    1.124e-02
	   2        -0.364255665890652    1.639e-03
	   3        -0.364135867380743    9.744e-04
	   4        -0.364111552169824    4.261e-04
	   5        -0.364122022025907    1.761e-04
	   6        -0.364124905725834    4.164e-05
	   7        -0.364124461293684    9.123e-06
	   8        -0.364124452896989    1.977e-06
	   9        -0.364124473901688    5.096e-07
	  10        -0.364124471169513    1.305e-07
	  11        -0.364124469791253    3.649e-08
	  12        -0.364124469251064    9.352e-09
	  13        -0.364124469475562    2.299e-09
	  14        -0.364124469494571    6.048e-10
	  15        -0.364124469494435    2.015e-10
	  16        -0.364124469489571    5.908e-11

	Largest LIA Amplitudes:
	          6   0        -0.0088889553
	          6   9        -0.0046230265
	          6   2         0.0043558282
	          7  17         0.0037331043
	          3   1        -0.0037156080
	          4   9        -0.0037153617
	          5   0         0.0036783104
	          6   1         0.0029821853
	          4   2        -0.0027873912
	          3  10        -0.0027698857

	Largest LIjAb Amplitudes:
	  8   8  17  17        -0.0343768534
	  6   6   2   2        -0.0334418909
	  6   6   0   0        -0.0231204851
	  8   8  18  18        -0.0214011801
	  6   6   0   2         0.0212279711
	  6   6   2   0         0.0212279711
	  7   7  18  18        -0.0210288531
	  7   8  17  17         0.0202007792
	  8   7  17  17         0.0202007792
	  7   8  18  18        -0.0188264244

	Iterations converged.

	Overlap <L|e^T> =        0.92327310268

*** tstop() called on ganymede.local at Sat Jun 25 19:10:31 2011
	user time   =       1.90 seconds =       0.03 minutes
	system time =       1.15 seconds =       0.02 minutes
	total time  =          1 seconds =       0.02 minutes

*** tstart() called on ganymede.local
*** at Sat Jun 25 19:10:31 2011

			**************************
			*                        *
			*       ccresponse       *
			*                        *
			**************************

	Input parameters:
	-----------------
	Property         =    POLARIZABILITY
	Reference wfn    =      RHF
	Memory (Mbytes)  =  256.0
	Cache Level      =    0
	Print Level      =    0
	Maxiter          =     50
	Convergence      = 1.0e-10
	Restart          =     Not Allowed
	DIIS             =     Yes
	Model III        =     No
	Linear Model     =     No
	ABCD             =     NEW
	Irrep X          =     A'
	Irrep Y          =     A'
	Irrep Z          =     A"
	Irrep RX         =     A"
	Irrep RY         =     A"
	Irrep RZ         =     A'
	Gauge            =    LENGTH
	Applied field  0 =  0.000
	Analyze X2 Amps  =    No
	Local CC         =    No

    Molecular point group: cs

    Geometry (in Bohr), charge = 0, multiplicity = 1:

       Center              X                  Y                   Z       
    ------------   -----------------  -----------------  -----------------
           O         -0.947809457408    -0.132934425181     0.000000000000
           H         -1.513924046286     1.610489987673     0.000000000000
           F          0.878279174340     0.026485523618     0.000000000000

    Number of unique atoms: 3

    Atoms equivalency:
       unique atom 0: 0 
       unique atom 1: 1 
       unique atom 2: 2 

  -AO BASIS SET INFORMATION:
    Total number of shells = 15
    Number of primitives   = 49
    Number of AO           = 35
    Number of SO           = 33
    Maximum AM             = 2
    Spherical Harmonics    = TRUE

  -Contraction Scheme:
    Atom   Type   All Primitives // Shells:
   ------ ------ --------------------------
       1     O     17s 4p 1d // 3s 2p 1d 
       2     H     4s 1p // 2s 1p 
       3     F     17s 4p 1d // 3s 2p 1d 

  -Basis set on unique center 1: O
     S (      11720.00000000           0.56970172)
       (       1759.00000000           1.05835210)
       (        400.80000000           1.77628106)
       (        113.70000000           2.59941189)
       (         37.03000000           3.02684600)
       (         13.27000000           2.22239433)
       (          5.02500000           0.64779543)
       (          1.01300000           0.01111870)
     S (      11720.00000000          -0.25243426)
       (       1759.00000000          -0.48049109)
       (        400.80000000          -0.78629966)
       (        113.70000000          -1.25416990)
       (         37.03000000          -1.49121792)
       (         13.27000000          -1.61083178)
       (          5.02500000          -0.54979838)
       (          1.01300000           0.78828221)
     S (          0.30230000           0.29056192)
     P (         17.70000000           3.24361935)
       (          3.85400000           2.56727965)
       (          1.04600000           1.11766932)
     P (          0.27530000           0.28424828)
     D (          1.18500000           2.21521850)

  -Basis set on unique center 2: H
     S (         13.01000000           0.16354842)
       (          1.96200000           0.27741754)
       (          0.44460000           0.31574931)
     S (          0.12200000           0.14712279)
     P (          0.72700000           0.95688138)

  -Basis set on unique center 3: F
     S (      14710.00000000           0.68605396)
       (       2207.00000000           1.27377561)
       (        502.80000000           2.13815742)
       (        142.60000000           3.12913526)
       (         46.47000000           3.63658177)
       (         16.70000000           2.64027899)
       (          6.35600000           0.75501475)
       (          1.31600000           0.01342093)
     S (      14710.00000000          -0.30576437)
       (       2207.00000000          -0.58432291)
       (        502.80000000          -0.95679530)
       (        142.60000000          -1.52808641)
       (         46.47000000          -1.81962328)
       (         16.70000000          -1.95730098)
       (          6.35600000          -0.62382891)
       (          1.31600000           0.95940115)
     S (          0.38970000           0.35152636)
     P (         22.67000000           4.57148657)
       (          4.97700000           3.60837656)
       (          1.34700000           1.51959530)
     P (          0.34710000           0.37975924)
     D (          1.64000000           3.91188600)


	Computing Mu_X-Perturbed Wave Function (0.000 E_h).
	Iter   Pseudopolarizability       RMS 
	----   --------------------   -----------
	   0         3.976751914126
	   1         4.972589815155    2.597e-01
	   2         5.830519338608    1.478e-01
	   3         5.866075673074    4.363e-02
	   4         5.892854128932    2.424e-02
	   5         5.896437611639    3.929e-03
	   6         5.895342246046    1.112e-03
	   7         5.895385943095    3.007e-04
	   8         5.895365601468    7.196e-05
	   9         5.895352828443    1.804e-05
	  10         5.895354198582    4.329e-06
	  11         5.895356194075    1.026e-06
	  12         5.895356960138    2.202e-07
	  13         5.895357014766    5.099e-08
	  14         5.895357022334    1.611e-08
	  15         5.895357013403    4.838e-09
	  16         5.895357010147    1.388e-09
	  17         5.895357009704    4.218e-10
	  18         5.895357009713    1.030e-10
	-----------------------------------------
	Converged Mu_X-Perturbed Wfn to 3.150e-11

	Computing Mu_Y-Perturbed Wave Function (0.000 E_h).
	Iter   Pseudopolarizability       RMS 
	----   --------------------   -----------
	   0         4.189912878581
	   1         5.316215437200    3.468e-01
	   2         6.621374955680    2.143e-01
	   3         6.657896581477    5.176e-02
	   4         6.705061213477    2.583e-02
	   5         6.710746807099    3.633e-03
	   6         6.710441194978    1.007e-03
	   7         6.710586070619    1.961e-04
	   8         6.710602150653    4.222e-05
	   9         6.710595575408    1.178e-05
	  10         6.710596796935    3.554e-06
	  11         6.710598654862    1.037e-06
	  12         6.710599547084    2.329e-07
	  13         6.710599611288    4.263e-08
	  14         6.710599619710    1.408e-08
	  15         6.710599603668    5.179e-09
	  16         6.710599598030    1.710e-09
	  17         6.710599596485    6.253e-10
	  18         6.710599596095    1.888e-10
	-----------------------------------------
	Converged Mu_Y-Perturbed Wfn to 5.382e-11

	Computing Mu_Z-Perturbed Wave Function (0.000 E_h).
	Iter   Pseudopolarizability       RMS 
	----   --------------------   -----------
	   0         2.373344872625
	   1         2.824593327259    1.684e-01
	   2         3.156590658368    1.031e-01
	   3         3.191926367391    4.791e-02
	   4         3.218019275481    1.967e-02
	   5         3.217647230682    5.012e-03
	   6         3.218678098616    1.279e-03
	   7         3.218717419287    2.750e-04
	   8         3.218701625235    6.891e-05
	   9         3.218708505642    1.640e-05
	  10         3.218709861835    5.543e-06
	  11         3.218709440094    1.454e-06
	  12         3.218708946970    4.171e-07
	  13         3.218708934394    9.472e-08
	  14         3.218708973888    2.393e-08
	  15         3.218708983023    5.422e-09
	  16         3.218708985021    1.265e-09
	  17         3.218708984821    3.397e-10
	-----------------------------------------
	Converged Mu_Z-Perturbed Wfn to 9.137e-11

	Computing <<Mu;Mu>_(0.000) tensor.

                 CCSD Dipole Polarizability [(e^2 a0^2)/E_h]:
  -------------------------------------------------------------------------
   Evaluated at omega = 0.000000 E_h (Inf nm, 0.000 eV,     0.00 cm-1)
  -------------------------------------------------------------------------

                0                  1                  2        

    0   5.725437136207634 -1.786158595089105  0.000000000000000
    1  -1.786158595089105  6.486317351777101  0.000000000000000
    2   0.000000000000000  0.000000000000000  3.162419748910795

	alpha_(0.000) =      15.374174236896 a.u.

*** tstop() called on ganymede.local at Sat Jun 25 19:10:36 2011
	user time   =       4.19 seconds =       0.07 minutes
	system time =       2.72 seconds =       0.05 minutes
	total time  =          5 seconds =       0.08 minutes

*** PSI4 exiting successfully, buy a developer a beer!
