    -----------------------------------------------------------------------
          PSI4: An Open-Source Ab Initio Electronic Structure Package
                              PSI 4.0.0-beta1 Driver

    J. M. Turney, A. C. Simmonett, R. M. Parrish, E. G. Hohenstein,
    F. Evangelista, J. T. Fermann, B. J. Mintz, L. A. Burns, J. J. Wilke,
    M. L. Abrams, N. J. Russ, M. L. Leininger, C. L. Janssen, E. T. Seidl,
    W. D. Allen, H. F. Schaefer, R. A. King, E. F. Valeev, C. D. Sherrill,
    and T. D. Crawford, WIREs Comput. Mol. Sci., (2011) (doi: 10.1002/wcms.93)

                         Additional Contributions by
    A. E. DePrince, M. Saitow, U. Bozkaya, A. Yu. Sokolov
    -----------------------------------------------------------------------


    Using LocalCommunicator (Number of processes = 1)

    Memory level set to 256.000 MB

  ==> Input File <==

--------------------------------------------------------------------------
# RHF-CCSD-LR/cc-pVDZ static polarizability of HOF

memory 250 mb

molecule hof {
          O          -0.947809457408    -0.132934425181     0.000000000000
          H          -1.513924046286     1.610489987673     0.000000000000
          F           0.878279174340     0.026485523618     0.000000000000
unit bohr
noreorient
}

set {
   basis cc-pVDZ
}

response('ccsd')

refnuc = 46.780362058359806     #TEST
refscf = -174.41843300162472    #TEST
refccsd = -0.368843103062227    #TEST
reftotal = -174.787276104686754 #TEST

compare_values(refnuc, hof.nuclear_repulsion_energy(),           9, "Nuclear repulsion energy") #TEST
compare_values(refscf, get_variable("SCF total energy"),         9, "SCF energy")               #TEST
compare_values(refccsd, get_variable("CCSD correlation energy"), 8, "CCSD correlation energy")  #TEST
compare_values(reftotal, get_variable("Current energy"),         8, "CCSD total energy")        #TEST
--------------------------------------------------------------------------

  Memory set to 250.000 MiB by Python script.

*** tstart() called on QuickSilver.local
*** at Mon Jan 23 15:03:45 2012

	There are an even number of electrons - assuming singlet.
	Specify the multiplicity with the MULTP option in the
	input if this is incorrect


         ---------------------------------------------------------
                                   SCF
            by Justin Turney, Rob Parrish, and Andy Simmonett
                              RHF Reference
                        1 Threads,    250 MiB Core
         ---------------------------------------------------------

  ==> Geometry <==

    Molecular point group: cs

    Geometry (in Bohr), charge = 0, multiplicity = 1:

       Center              X                  Y                   Z       
    ------------   -----------------  -----------------  -----------------
           O         -0.947809457408    -0.132934425181     0.000000000000
           H         -1.513924046286     1.610489987673     0.000000000000
           F          0.878279174340     0.026485523618     0.000000000000

    Number of unique atoms: 3

    Atoms equivalency:
       unique atom 0: 0 
       unique atom 1: 1 
       unique atom 2: 2 

  Running in cs symmetry.

  Nuclear repulsion =   46.780362058359806

  Charge       = 0
  Multiplicity = 1
  Electrons    = 18
  Nalpha       = 9
  Nbeta        = 9

  ==> Algorithm <==

  SCF Algorithm Type is PK.
  DIIS enabled.
  MOM disabled.
  Fractional occupation disabled.
  Guess Type is CORE.
  Energy threshold   = 1.00e-08
  Density threshold  = 1.00e-08
  Integral threshold = 0.00e+00

  ==> Primary Basis: CC-PVDZ <==

  Basis Set
    Number of shells: 15
    Number of basis function: 33
    Number of Cartesian functions: 35
    Spherical Harmonics?: true
    Max angular momentum: 2

  ==> Pre-Iterations <==

  Minimum eigenvalue in the overlap matrix is 1.1480368199E-02.
  Using Symmetric Orthogonalization.
  SCF Guess: Core (One-Electron) Hamiltonian.

  Initial RHF energy:  -133.10619662228331

   -------------------------------------------------------
    Irrep   Nso     Nmo     Nalpha   Nbeta   Ndocc  Nsocc
   -------------------------------------------------------
     A'        24      24       7       7       7       0
     A"         9       9       2       2       2       0
   -------------------------------------------------------
    Total      33      33       9       9       9       0
   -------------------------------------------------------

  ==> Integral Setup <==

 MINTS: Wrapper to libmints.
   by Justin Turney

   Calculation information:
      Number of atoms:                   3
      Number of AO shells:              15
      Number of SO shells:              15
      Number of primitives:             49
      Number of atomic orbitals:        35
      Number of basis functions:        33

      Number of irreps:                  2
      Number of functions per irrep: [  24    9 ]

      Overlap, kinetic, potential, dipole, and quadrupole integrals
        stored in file 35.

      Computing two-electron integrals...done
      Computed 78700 non-zero two-electron integrals.
        Stored in file 33.

  ==> Iterations <==

                        Total Energy        Delta E     Density RMS

   @RHF iter   1:  -159.89903886265745   -2.67928e+01   0.00000e+00 
	Occupation by irrep:
	         A'    A" 
	DOCC [     8,    1 ]
   @RHF iter   2:  -161.87005159720300   -1.97101e+00   2.86011e-01 DIIS
	Occupation by irrep:
	         A'    A" 
	DOCC [     7,    2 ]
   @RHF iter   3:  -174.13894832477413   -1.22689e+01   2.46076e-01 DIIS
   @RHF iter   4:  -174.39661955605203   -2.57671e-01   1.68208e-02 DIIS
   @RHF iter   5:  -174.41501884406316   -1.83993e-02   4.76869e-03 DIIS
   @RHF iter   6:  -174.41784376455013   -2.82492e-03   2.13077e-03 DIIS
   @RHF iter   7:  -174.41837739415647   -5.33630e-04   1.13021e-03 DIIS
   @RHF iter   8:  -174.41843153805800   -5.41439e-05   4.74213e-04 DIIS
   @RHF iter   9:  -174.41843292019803   -1.38214e-06   7.43395e-05 DIIS
   @RHF iter  10:  -174.41843300059733   -8.03993e-08   2.07694e-05 DIIS
   @RHF iter  11:  -174.41843300157751   -9.80179e-10   1.80913e-06 DIIS
   @RHF iter  12:  -174.41843300162284   -4.53326e-11   2.54361e-07 DIIS
   @RHF iter  13:  -174.41843300162458   -1.73372e-12   8.65693e-08 DIIS
   @RHF iter  14:  -174.41843300162458    0.00000e+00   1.45291e-08 DIIS

  ==> Post-Iterations <==

	Orbital Energies (a.u.)
	-----------------------

	Doubly Occupied:                                                      

	   1A'   -26.330356     2A'   -20.627725     3A'    -2.082395  
	   4A'    -1.191294     5A'    -0.971697     1A"    -0.924953  
	   6A'    -0.850985     7A'    -0.460395     2A"    -0.380150  

	Virtual:                                                              

	   8A'     0.192183     9A'     0.648601    10A'     0.823611  
	   3A"     1.119958    11A'     1.143363    12A'     1.228844  
	  13A'     1.367723    14A'     1.461132     4A"     1.471205  
	   5A"     1.535571    15A'     1.667967    16A'     1.769476  
	  17A'     2.310638    18A'     2.700605     6A"     2.776264  
	  19A'     3.034541     7A"     3.108650    20A'     3.654401  
	  21A'     3.975079     8A"     4.008294    22A'     4.151683  
	   9A"     4.827587    23A'     4.882340    24A'     5.266361  

	Final Occupation by Irrep:
	         A'    A" 
	DOCC [     7,    2 ]

  Energy converged.

  @RHF Final Energy:  -174.41843300162458

  ==> Properties <==
  Nuclear Dipole Moment: (a.u.)
     X:    -1.1919      Y:     0.7854      Z:     0.0000

  Electronic Dipole Moment: (a.u.)
     X:     1.1188      Y:    -0.1743      Z:     0.0000

  Dipole Moment: (a.u.)
     X:    -0.0731      Y:     0.6110      Z:     0.0000     Total:     0.6154

  Dipole Moment: (Debye)
     X:    -0.1857      Y:     1.5531      Z:     0.0000     Total:     1.5642


  Saving occupied orbitals to File 180.

*** tstop() called on QuickSilver.local at Mon Jan 23 15:03:45 2012
Module time:
	user time   =       0.26 seconds =       0.00 minutes
	system time =       0.02 seconds =       0.00 minutes
	total time  =          0 seconds =       0.00 minutes
Total time:
	user time   =       0.26 seconds =       0.00 minutes
	system time =       0.02 seconds =       0.00 minutes
	total time  =          0 seconds =       0.00 minutes

*** tstart() called on QuickSilver.local
*** at Mon Jan 23 15:03:45 2012


	**************************************************
	* TRANSQT2: Program to transform integrals from  *
	*           the SO basis to the MO basis.        *
	*                                                *
	*            Daniel, David, & Justin             *
	**************************************************


	Input parameters:
	-----------------
	Wave function   =	CCSD
	Backtransform   =	No
	Print Level     =	1
	Print TEIs      =	No
	Reference wfn   =	RHF
	Derivative      =	Response
	Delete TEI File =	Yes
	Memory (Mbytes) =	250.0
	Cache Level     =	2
	Cache Type      =	LRU
	Chkpt Parameters:
	--------------------
	Number of irreps     = 2
	Number of SOs        = 33
	Number of MOs        = 33
	Number of active MOs = 33

	Label	# SOs	# FZDC	# DOCC	# SOCC	# VIRT	# FZVR
	-----	-----	------	------	------	------	------
	 A'	   24	    0	    7	    0	    17	    0
	 A"	   9	    0	    2	    0	    7	    0

	Nuclear Rep. energy (chkpt) =     46.78036205835981
	SCF energy          (chkpt) =   -174.41843300162458

	Presorting SO-basis two-electron integrals.
	Sorting File: SO Ints (pq,rs) nbuckets = 1
	Frozen-core energy =    0.000000000000000
	Starting first half-transformation.
	Sorting half-transformed integrals.
	Starting second half-transformation.
	Two-electron integral transformation complete.

*** tstop() called on QuickSilver.local at Mon Jan 23 15:03:45 2012
Module time:
	user time   =       0.05 seconds =       0.00 minutes
	system time =       0.03 seconds =       0.00 minutes
	total time  =          0 seconds =       0.00 minutes
Total time:
	user time   =       0.31 seconds =       0.01 minutes
	system time =       0.05 seconds =       0.00 minutes
	total time  =          0 seconds =       0.00 minutes

*** tstart() called on QuickSilver.local
*** at Mon Jan 23 15:03:45 2012


			**************************
			*                        *
			*         CCSORT         *
			*                        *
			**************************


	Input parameters:
	-----------------
	Wave function   =	CCSD
	Reference wfn   =	RHF
	Derivative      =	Response
	Memory (Mbytes) =	250.0
	AO Basis        =	NONE
	Make (ab|cd)    =	True
	Make unpacked (ab|cd) =	False
	Cache Level     =	2
	Cache Type      =	LRU
	Local CC        =     No


	Chkpt Parameters:
	--------------------
	Number of irreps     = 2
	Number of MOs        = 33
	Number of active MOs = 33

	Label	# MOs	# FZDC	# DOCC	# SOCC	# VIRT	# FZVR
	-----	-----	------	------	------	------	------
	 A'	   24	    0	    7	    0	    17	    0
	 A"	   9	    0	    2	    0	    7	    0

	Nuclear Rep. energy (chkpt) =     46.78036205835981
	SCF energy          (chkpt) =   -174.41843300162458

	Size of irrep 0 of <ab|cd> integrals:      0.114 (MW) /      0.914 (MB)
	Size of irrep 1 of <ab|cd> integrals:      0.057 (MW) /      0.453 (MB)
	Total:                                     0.171 (MW) /      1.367 (MB)

	Size of irrep 0 of <ia|bc> integrals:      0.045 (MW) /      0.360 (MB)
	Size of irrep 1 of <ia|bc> integrals:      0.020 (MW) /      0.158 (MB)
	Total:                                     0.065 (MW) /      0.518 (MB)

	Size of irrep 0 of tijab amplitudes:       0.018 (MW) /      0.143 (MB)
	Size of irrep 1 of tijab amplitudes:       0.007 (MW) /      0.053 (MB)
	Total:                                     0.025 (MW) /      0.197 (MB)


	Sorting File: A <ij|kl> nbuckets = 1
	Sorting File: B(+) <ab|cd> nbuckets = 1
	Sorting File: C <ia|jb> nbuckets = 1
	Sorting File: D <ij|ab> nbuckets = 1
	Sorting File: E <ai|jk> nbuckets = 1
	Sorting File: F <ia|bc> nbuckets = 1
	One-electron energy          =   -334.75769231860568
	Two-electron (AA) energy     =     47.26858977470966
	Two-electron (BB) energy     =     47.26858977470966
	Two-electron (AB) energy     =     66.29030748391150
	Two-electron energy          =    113.55889725862116
	Frozen-core energy (transqt) =      0.00000000000000
	Reference energy             =   -174.41843300162472

*** tstop() called on QuickSilver.local at Mon Jan 23 15:03:46 2012
Module time:
	user time   =       0.04 seconds =       0.00 minutes
	system time =       0.05 seconds =       0.00 minutes
	total time  =          1 seconds =       0.02 minutes
Total time:
	user time   =       0.35 seconds =       0.01 minutes
	system time =       0.10 seconds =       0.00 minutes
	total time  =          1 seconds =       0.02 minutes

*** tstart() called on QuickSilver.local
*** at Mon Jan 23 15:03:46 2012

			**************************
			*                        *
			*        CCENERGY        *
			*                        *
			**************************

	Nuclear Rep. energy (chkpt)   =   46.780362058359806
	SCF energy          (chkpt)   = -174.418433001624578
	Reference energy    (file100) = -174.418433001624720

	Input parameters:
	-----------------
	Wave function   =     CCSD
	Reference wfn   =     RHF
	Memory (Mbytes) =     250.0
	Maxiter         =     50
	Convergence     =     1.0e-07
	Restart         =     No
	DIIS            =     Yes
	AO Basis        =     NONE
	ABCD            =     NEW
	Cache Level     =     2
	Cache Type      =     LOW
	Print Level     =     1
	Num. of threads =     1
	# Amps to Print =     10
	Print MP2 Amps? =     No
	Analyze T2 Amps =     No
	Print Pair Ener =     No
	Local CC        =     No
	SCS-MP2         =     False
	SCSN-MP2        =     False
	SCS-CCSD        =     False

	            Solving CC Amplitude Equations
	            ------------------------------
  Iter             Energy              RMS        T1Diag      D1Diag    New D1Diag
  ----     ---------------------    ---------   ----------  ----------  ----------
     0        -0.356636240726634    0.000e+00    0.000000    0.000000    0.000000
     1        -0.362752063098801    3.144e-02    0.004275    0.011894    0.011894
     2        -0.368196197119331    1.020e-02    0.004675    0.013297    0.013297
     3        -0.368909989053916    3.691e-03    0.005274    0.015965    0.015965
     4        -0.368843223250080    1.064e-03    0.005417    0.016790    0.016790
     5        -0.368847102126304    5.172e-04    0.005511    0.017384    0.017384
     6        -0.368845295153107    1.896e-04    0.005559    0.017671    0.017671
     7        -0.368842607498800    4.221e-05    0.005566    0.017712    0.017712
     8        -0.368842991731537    9.726e-06    0.005568    0.017722    0.017722
     9        -0.368843083956378    1.805e-06    0.005568    0.017722    0.017722
    10        -0.368843084633750    4.602e-07    0.005568    0.017723    0.017723
    11        -0.368843099035879    1.246e-07    0.005568    0.017723    0.017723
    12        -0.368843101561144    3.400e-08    0.005568    0.017723    0.017723

	Iterations converged.


	Largest TIA Amplitudes:
	          6   0         0.0137314001
	          6   2        -0.0064752642
	          7  17        -0.0058546052
	          5   0        -0.0054830915
	          6   9         0.0050129170
	          3   1         0.0049539855
	          8  17        -0.0043004430
	          6   1        -0.0041980484
	          4   9        -0.0039633122
	          7  18         0.0038967923

	Largest TIjAb Amplitudes:
	  8   8  17  17        -0.0347803133
	  6   6   2   2        -0.0346572608
	  6   6   0   0        -0.0242680503
	  6   6   0   2         0.0221026069
	  6   6   2   0         0.0221026069
	  8   8  18  18        -0.0216499648
	  7   7  18  18        -0.0211241949
	  7   8  17  17        -0.0203462179
	  8   7  17  17        -0.0203462179
	  7   8  18  18         0.0189838367

	SCF energy       (chkpt)              = -174.418433001624578
	Reference energy (file100)            = -174.418433001624720

	Opposite-spin MP2 correlation energy  =   -0.260477904536016
	Same-spin MP2 correlation energy      =   -0.096158336190617
	MP2 correlation energy                =   -0.356636240726634
      * MP2 total energy                      = -174.775069242351350

	Opposite-spin CCSD correlation energy =   -0.280899923857957
	Same-spin CCSD correlation energy     =   -0.087943177709775
	CCSD correlation energy               =   -0.368843101561144
      * CCSD total energy                     = -174.787276103185860


*** tstop() called on QuickSilver.local at Mon Jan 23 15:03:50 2012
Module time:
	user time   =       0.76 seconds =       0.01 minutes
	system time =       0.45 seconds =       0.01 minutes
	total time  =          4 seconds =       0.07 minutes
Total time:
	user time   =       1.12 seconds =       0.02 minutes
	system time =       0.55 seconds =       0.01 minutes
	total time  =          5 seconds =       0.08 minutes

*** tstart() called on QuickSilver.local
*** at Mon Jan 23 15:03:50 2012


			**************************
			*                        *
			*         CCHBAR         *
			*                        *
			**************************


*** tstop() called on QuickSilver.local at Mon Jan 23 15:03:51 2012
Module time:
	user time   =       0.08 seconds =       0.00 minutes
	system time =       0.06 seconds =       0.00 minutes
	total time  =          1 seconds =       0.02 minutes
Total time:
	user time   =       1.20 seconds =       0.02 minutes
	system time =       0.61 seconds =       0.01 minutes
	total time  =          6 seconds =       0.10 minutes

*** tstart() called on QuickSilver.local
*** at Mon Jan 23 15:03:51 2012


			**************************
			*        CCLAMBDA        *
			**************************


	Nuclear Rep. energy (chkpt)   =   46.780362058359806
	Reference           (chkpt)   = 0
	SCF energy          (chkpt)   = -174.418433001624578
	Reference energy    (CC_INFO) = -174.418433001624720
	CCSD energy         (CC_INFO) =   -0.368843101561144
	Total CCSD energy   (CC_INFO) = -174.787276103185860

	Input parameters:
	-----------------
	Maxiter       =      50
	Convergence   = 1.0e-07
	Restart       =     No
	Cache Level   =     2
	Model III     =     No
	DIIS          =     Yes
	AO Basis      =     No
	ABCD            =     NEW
	Local CC        =     No
	Paramaters for left-handed eigenvectors:
	    Irr   Root  Ground-State?    EOM energy        R0
	  1   0     0        Yes       0.0000000000   1.0000000000
	Labels for eigenvector 1:
	LIA 0 -1, Lia 0 -1, LIJAB 0 -1, Lijab 0 -1, LIjAb 0 -1, 2LIjAb - LIjbA 0 -1
	Deleting old CC_LAMBDA data.
	Symmetry of left-hand state: A'
	Symmetry of left-hand eigenvector: A'

	          Solving Lambda Equations
	          ------------------------
	Iter     PseudoEnergy or Norm         RMS  
	----     ---------------------     --------
	   0        -0.368917657479702    0.000e+00
	   1        -0.364932522710935    1.124e-02
	   2        -0.364255665845356    1.639e-03
	   3        -0.364135867455912    9.744e-04
	   4        -0.364111552241288    4.261e-04
	   5        -0.364122022092683    1.761e-04
	   6        -0.364124905790445    4.164e-05
	   7        -0.364124461359542    9.123e-06
	   8        -0.364124452963068    1.977e-06
	   9        -0.364124473967865    5.096e-07
	  10        -0.364124471235739    1.305e-07
	  11        -0.364124470197863    3.649e-08

	Largest LIA Amplitudes:
	          6   0         0.0088889556
	          6   9         0.0046230270
	          6   2        -0.0043558327
	          7  17        -0.0037331035
	          3   1         0.0037156071
	          4   9        -0.0037153617
	          5   0        -0.0036782953
	          6   1        -0.0029821744
	          4   2        -0.0027873895
	          3  10         0.0027698858

	Largest LIjAb Amplitudes:
	  8   8  17  17        -0.0343768543
	  6   6   2   2        -0.0334418934
	  6   6   0   0        -0.0231204892
	  8   8  18  18        -0.0214011798
	  6   6   0   2         0.0212279748
	  6   6   2   0         0.0212279748
	  7   7  18  18        -0.0210288529
	  7   8  17  17        -0.0202007798
	  8   7  17  17        -0.0202007798
	  7   8  18  18         0.0188264243

	Iterations converged.

	Overlap <L|e^T> =        0.92327310293

*** tstop() called on QuickSilver.local at Mon Jan 23 15:03:52 2012
Module time:
	user time   =       0.34 seconds =       0.01 minutes
	system time =       0.14 seconds =       0.00 minutes
	total time  =          1 seconds =       0.02 minutes
Total time:
	user time   =       1.54 seconds =       0.03 minutes
	system time =       0.75 seconds =       0.01 minutes
	total time  =          7 seconds =       0.12 minutes

*** tstart() called on QuickSilver.local
*** at Mon Jan 23 15:03:52 2012

			**************************
			*                        *
			*       ccresponse       *
			*                        *
			**************************

	Input parameters:
	-----------------
	Property         =    POLARIZABILITY
	Reference wfn    =      RHF
	Memory (Mbytes)  =  250.0
	Cache Level      =    0
	Print Level      =    1
	Maxiter          =     50
	Convergence      = 1.0e-07
	Restart          =     Allowed
	DIIS             =     Yes
	Model III        =     No
	Linear Model     =     No
	ABCD             =     NEW
	Irrep X          =     A'
	Irrep Y          =     A'
	Irrep Z          =     A"
	Irrep RX         =     A"
	Irrep RY         =     A"
	Irrep RZ         =     A'
	Gauge            =    LENGTH
	Applied field  0 =  0.000
	Analyze X2 Amps  =    No
	Local CC         =    No

    Molecular point group: cs

    Geometry (in Bohr), charge = 0, multiplicity = 1:

       Center              X                  Y                   Z       
    ------------   -----------------  -----------------  -----------------
           O         -0.947809457408    -0.132934425181     0.000000000000
           H         -1.513924046286     1.610489987673     0.000000000000
           F          0.878279174340     0.026485523618     0.000000000000

    Number of unique atoms: 3

    Atoms equivalency:
       unique atom 0: 0 
       unique atom 1: 1 
       unique atom 2: 2 

  -AO BASIS SET INFORMATION:
    Total number of shells = 15
    Number of primitives   = 49
    Number of AO           = 35
    Number of SO           = 33
    Maximum AM             = 2
    Spherical Harmonics    = TRUE

  -Contraction Scheme:
    Atom   Type   All Primitives // Shells:
   ------ ------ --------------------------
       1     O     17s 4p 1d // 3s 2p 1d 
       2     H     4s 1p // 2s 1p 
       3     F     17s 4p 1d // 3s 2p 1d 

  -Basis set on unique center 1: O
     S (      11720.00000000           0.56970172)
       (       1759.00000000           1.05835210)
       (        400.80000000           1.77628106)
       (        113.70000000           2.59941189)
       (         37.03000000           3.02684600)
       (         13.27000000           2.22239433)
       (          5.02500000           0.64779543)
       (          1.01300000           0.01111870)
     S (      11720.00000000          -0.25243426)
       (       1759.00000000          -0.48049109)
       (        400.80000000          -0.78629966)
       (        113.70000000          -1.25416990)
       (         37.03000000          -1.49121792)
       (         13.27000000          -1.61083178)
       (          5.02500000          -0.54979838)
       (          1.01300000           0.78828221)
     S (          0.30230000           0.29056192)
     P (         17.70000000           3.24361935)
       (          3.85400000           2.56727965)
       (          1.04600000           1.11766932)
     P (          0.27530000           0.28424828)
     D (          1.18500000           2.21521850)

  -Basis set on unique center 2: H
     S (         13.01000000           0.16354842)
       (          1.96200000           0.27741754)
       (          0.44460000           0.31574931)
     S (          0.12200000           0.14712279)
     P (          0.72700000           0.95688138)

  -Basis set on unique center 3: F
     S (      14710.00000000           0.68605396)
       (       2207.00000000           1.27377561)
       (        502.80000000           2.13815742)
       (        142.60000000           3.12913526)
       (         46.47000000           3.63658177)
       (         16.70000000           2.64027899)
       (          6.35600000           0.75501475)
       (          1.31600000           0.01342093)
     S (      14710.00000000          -0.30576437)
       (       2207.00000000          -0.58432291)
       (        502.80000000          -0.95679530)
       (        142.60000000          -1.52808641)
       (         46.47000000          -1.81962328)
       (         16.70000000          -1.95730098)
       (          6.35600000          -0.62382891)
       (          1.31600000           0.95940115)
     S (          0.38970000           0.35152636)
     P (         22.67000000           4.57148657)
       (          4.97700000           3.60837656)
       (          1.34700000           1.51959530)
     P (          0.34710000           0.37975924)
     D (          1.64000000           3.91188600)


	Computing Mu_X-Perturbed Wave Function (0.000 E_h).
	Iter   Pseudopolarizability       RMS 
	----   --------------------   -----------
	   0         3.976751861500
	   1         4.972589740699    2.597e-01
	   2         5.830519227654    1.478e-01
	   3         5.866075558985    4.363e-02
	   4         5.892854013179    2.424e-02
	   5         5.896437495541    3.929e-03
	   6         5.895342130047    1.112e-03
	   7         5.895385827086    3.007e-04
	   8         5.895365485461    7.196e-05
	   9         5.895352712436    1.804e-05
	  10         5.895354082576    4.329e-06
	  11         5.895356078069    1.026e-06
	  12         5.895356844131    2.202e-07
	-----------------------------------------
	Converged Mu_X-Perturbed Wfn to 5.099e-08

	Computing Mu_Y-Perturbed Wave Function (0.000 E_h).
	Iter   Pseudopolarizability       RMS 
	----   --------------------   -----------
	   0         4.189912882013
	   1         5.316215440929    3.468e-01
	   2         6.621374958851    2.143e-01
	   3         6.657896584431    5.176e-02
	   4         6.705061216649    2.583e-02
	   5         6.710746810019    3.633e-03
	   6         6.710441197956    1.007e-03
	   7         6.710586073596    1.961e-04
	   8         6.710602153632    4.222e-05
	   9         6.710595578387    1.178e-05
	  10         6.710596799914    3.554e-06
	  11         6.710598657841    1.037e-06
	  12         6.710599550063    2.329e-07
	-----------------------------------------
	Converged Mu_Y-Perturbed Wfn to 4.263e-08

	Computing Mu_Z-Perturbed Wave Function (0.000 E_h).
	Iter   Pseudopolarizability       RMS 
	----   --------------------   -----------
	   0         2.373344876506
	   1         2.824593333896    1.684e-01
	   2         3.156590672444    1.031e-01
	   3         3.191926384084    4.791e-02
	   4         3.218019293843    1.967e-02
	   5         3.217647248985    5.012e-03
	   6         3.218678116948    1.279e-03
	   7         3.218717437624    2.750e-04
	   8         3.218701643572    6.891e-05
	   9         3.218708523979    1.640e-05
	  10         3.218709880172    5.543e-06
	  11         3.218709458431    1.454e-06
	  12         3.218708965307    4.171e-07
	-----------------------------------------
	Converged Mu_Z-Perturbed Wfn to 9.472e-08

	Computing <<Mu;Mu>_(0.000) tensor.

                 CCSD Dipole Polarizability [(e^2 a0^2)/E_h]:
  -------------------------------------------------------------------------
   Evaluated at omega = 0.000000 E_h (Inf nm, 0.000 eV,     0.00 cm-1)
  -------------------------------------------------------------------------

                0                  1                  2        

    0   5.725436996511798 -1.786158500275983  0.000000000000000
    1  -1.786158500275983  6.486317406373391  0.000000000000000
    2   0.000000000000000  0.000000000000000  3.162419719886142

	alpha_(0.000) =      15.374174122771 a.u.

*** tstop() called on QuickSilver.local at Mon Jan 23 15:03:56 2012
Module time:
	user time   =       1.79 seconds =       0.03 minutes
	system time =       0.99 seconds =       0.02 minutes
	total time  =          4 seconds =       0.07 minutes
Total time:
	user time   =       3.33 seconds =       0.06 minutes
	system time =       1.74 seconds =       0.03 minutes
	total time  =         11 seconds =       0.18 minutes

*** PSI4 exiting successfully. Buy a developer a beer!
