    -----------------------------------------------------------------------
          PSI4: An Open-Source Ab Initio Electronic Structure Package
                              PSI 4.0.0-beta2+ Driver

               Git: Rev 189d2a088ff48a7ae7856d8ee182965f824a4556

    J. M. Turney, A. C. Simmonett, R. M. Parrish, E. G. Hohenstein,
    F. A. Evangelista, J. T. Fermann, B. J. Mintz, L. A. Burns, J. J. Wilke,
    M. L. Abrams, N. J. Russ, M. L. Leininger, C. L. Janssen, E. T. Seidl,
    W. D. Allen, H. F. Schaefer, R. A. King, E. F. Valeev, C. D. Sherrill,
    and T. D. Crawford, WIREs Comput. Mol. Sci., (2011) (doi: 10.1002/wcms.93)

                         Additional Contributions by
    A. E. DePrince, M. Saitow, U. Bozkaya, A. Yu. Sokolov
    -----------------------------------------------------------------------

    Process ID:  31194
    PSI4DATADIR: /theoryfs2/ds/cook/psi4_23JULY2012/lib

    Using LocalCommunicator (Number of processes = 1)

    Memory level set to 256.000 MB

  ==> Input File <==

--------------------------------------------------------------------------
#! Double-hybrid density functional B2PYLP. Reproduces portion of Table I
#! in S. Grimme's J. Chem. Phys 124 034108 (2006) paper defining the functional.

memory 250 mb

molecule h2o {
  0 1
  O
  H  1 0.960729
  H  1 0.960729  2 104.92326
}
set basis cc-pvqz

molecule h2 {
  0 1
  H
  H  1 0.742904
}
set basis cc-pvqz

molecule n2 {
  0 1
  N
  N  1 1.090902
}
set basis cc-pvqz

molecule ethene {
  0 1
  C
  C  1 b1
  H  1 b2  2 a1
  H  1 b2  2 a1  3 -180.000000
  H  2 b2  1 a1  4 -180.000000
  H  2 b2  1 a1  3 -180.000000

  a1 =  121.7305456211
  b1 =    1.3247888503
  b2 =    1.0826774761
}
set basis cc-pvqz

set reference rks
set freeze_core false
set dft_radial_points 99
set dft_spherical_points 302

activate(h2)
eb2plyp = energy('dsd-pbep86')
compare_values(-1.169933887984, eb2plyp, 4, 'H2 with DSD-PBEP86')       #TEST
clean()

activate(h2)
eb2plyp = energy('b2plyp')
compare_values(-1.1709, eb2plyp, 4, 'H2 with B2PLYP')       #TEST
clean()

#activate(h2o)
#eb2plyp = energy('b2plyp')
#compare_values(-76.4309, eb2plyp, 4, 'Water')   #TEST
#clean()

#activate(n2)
#eb2plyp = energy('b2plyp')
#compare_values(-109.5302, eb2plyp, 4, 'N2')     #TEST
#clean()

# works but too long for test case              #TEST
#activate(ethene)                                #TEST
#eb2plyp = energy('b2plyp')                      #TEST
#compare_values(-78.5666, eb2plyp, 4, 'Ethene')  #TEST
#clean()                                         #TEST

--------------------------------------------------------------------------

  Memory set to 250.000 MiB by Python script.

*** tstart() called on ds4
*** at Thu Oct  4 15:33:24 2012


         ---------------------------------------------------------
                                   SCF
            by Justin Turney, Rob Parrish, and Andy Simmonett
                              RKS Reference
                        1 Threads,    250 MiB Core
         ---------------------------------------------------------

  ==> Geometry <==

    Molecular point group: d2h
    Full point group: D_inf_h

    Geometry (in Angstrom), charge = 0, multiplicity = 1:

       Center              X                  Y                   Z       
    ------------   -----------------  -----------------  -----------------
           H          0.000000000000     0.000000000000    -0.371452000000
           H          0.000000000000     0.000000000000     0.371452000000

  Running in d2h symmetry.

  Nuclear repulsion =    0.712309004380108

  Charge       = 0
  Multiplicity = 1
  Electrons    = 2
  Nalpha       = 1
  Nbeta        = 1

  ==> Algorithm <==

  SCF Algorithm Type is PK.
  DIIS enabled.
  MOM disabled.
  Fractional occupation disabled.
  Guess Type is CORE.
  Energy threshold   = 1.00e-08
  Density threshold  = 1.00e-08
  Integral threshold = 0.00e+00

  ==> Primary Basis <==

  Basis Set: CC-PVQZ
    Number of shells: 20
    Number of basis function: 60
    Number of Cartesian functions: 70
    Spherical Harmonics?: true
    Max angular momentum: 3

  ==> DFT Potential <==

   => DSD-PBEP86 Composite Functional <= 

    DSD-PBEP86 Dispersion-corrected SCS Double Hybrid XC Functional (opt. for -D2)

    S. Kozuch, Phys. Chem. Chem. Phys., 13, 20104, 2011

    Points   =           5000
    Deriv    =              1
    GGA      =           TRUE
    Meta     =          FALSE

    X_LRC        =          FALSE
    X_Hybrid     =           TRUE
    X_Alpha      =   6.800000E-01
    X_Omega      =   0.000000E+00
    C_LRC        =          FALSE
    C_Hybrid     =           TRUE
    C_SCS_Hybrid =           TRUE
    C_Alpha      =   1.000000E+00
    C_SS_Alpha   =   2.300000E-01
    C_OS_Alpha   =   5.100000E-01

   => Exchange Functionals <=

    0.3200 PBE_X
    0.6800    HF 

   => Correlation Functionals <=

    0.4500 P86_C
    0.2300 Same-Spin SCS-DF-MP2 
    0.5100 Opposite-Spin SCS-DF-MP2 

   => -D2: Empirical Dispersion <=

    Grimme's -D2 Dispersion Correction

    Grimme, S. (2006),  J. Comp. Chem., 27: 1787-1799

    S6 =   2.900000E-01

   => Molecular Quadrature <=

    Spherical Scheme = Lebedev-Laikov
    Radial Scheme    =       Treutler
    Atomic Scheme    =       Treutler

    Spherical Points =            302
    Radial Points    =             99
    Total Points     =          59122
    Total Blocks     =             94
    Max Points       =            974
    Max Functions    =             60

  ==> Pre-Iterations <==

   -------------------------------------------------------
    Irrep   Nso     Nmo     Nalpha   Nbeta   Ndocc  Nsocc
   -------------------------------------------------------
     Ag        13      13       0       0       0       0
     B1g        3       3       0       0       0       0
     B2g        7       7       0       0       0       0
     B3g        7       7       0       0       0       0
     Au         3       3       0       0       0       0
     B1u       13      13       0       0       0       0
     B2u        7       7       0       0       0       0
     B3u        7       7       0       0       0       0
   -------------------------------------------------------
    Total      60      60       1       1       1       0
   -------------------------------------------------------

  ==> Integral Setup <==

 MINTS: Wrapper to libmints.
   by Justin Turney

   Calculation information:
      Number of atoms:                   2
      Number of AO shells:              20
      Number of SO shells:              10
      Number of primitives:             24
      Number of atomic orbitals:        70
      Number of basis functions:        60

      Number of irreps:                  8
      Number of functions per irrep: [  13    3    7    7    3   13    7    7 ]

      Overlap, kinetic, potential, dipole, and quadrupole integrals
        stored in file 35.

      Computing two-electron integrals...done
      Computed 180477 non-zero two-electron integrals.
        Stored in file 33.

	Batch   1 pq = [       0,     306] index = [             0,         46971]
  ==> DiskJK: Disk-Based J/K Matrices <==

    J tasked:                  Yes
    K tasked:                  Yes
    wK tasked:                  No
    Memory (MB):               178
    Schwarz Cutoff:          0E+00

  Minimum eigenvalue in the overlap matrix is 3.2704500786E-04.
  Using Symmetric Orthogonalization.
  SCF Guess: Core (One-Electron) Hamiltonian.

  Initial RKS energy:    -0.57039289139479

  ==> Iterations <==

                        Total Energy        Delta E     Density RMS

   @RKS iter   1:    -1.09063027508284   -5.20237e-01   0.00000e+00 
   @RKS iter   2:    -1.15078203308811   -6.01518e-02   4.76245e-03 DIIS
   @RKS iter   3:    -1.15110202718171   -3.19994e-04   5.01186e-04 DIIS
   @RKS iter   4:    -1.15110733427559   -5.30709e-06   1.05329e-04 DIIS
   @RKS iter   5:    -1.15110736227956   -2.80040e-08   1.08901e-05 DIIS
   @RKS iter   6:    -1.15110736229159   -1.20273e-11   1.20890e-07 DIIS
   @RKS iter   7:    -1.15110736229169   -1.04361e-13   1.74745e-08 DIIS

  ==> Post-Iterations <==

	Orbital Energies (a.u.)
	-----------------------

	Doubly Occupied:                                                      

	   1Ag    -0.530774  

	Virtual:                                                              

	   1B1u    0.112106     2Ag     0.199426     1B2u    0.446398  
	   1B3u    0.446398     2B1u    0.462855     3Ag     0.743186  
	   1B3g    0.756264     1B2g    0.756264     3B1u    1.057032  
	   4Ag     1.232667     4B1u    1.491600     5Ag     1.847332  
	   1B1g    1.847332     2B3u    2.047142     2B2u    2.047142  
	   6Ag     2.259306     2B3g    2.279086     2B2g    2.279086  
	   5B1u    2.464144     1Au     2.464144     3B3u    2.465247  
	   3B2u    2.465247     6B1u    2.919004     7Ag     3.239007  
	   3B3g    3.508408     3B2g    3.508408     7B1u    3.872189  
	   8Ag     5.452724     4B2u    5.577237     4B3u    5.577237  
	   2B1g    6.096502     9Ag     6.096502     4B2g    6.622235  
	   4B3g    6.622235     5B3u    6.835812     5B2u    6.835812  
	   5B3g    6.967402     5B2g    6.967402    10Ag     7.209153  
	   8B1u    7.494934     2Au     7.494934     9B1u    7.621753  
	   6B3u    7.845186     6B2u    7.845186    11Ag     7.849541  
	   3B1g    7.849542    10B1u    8.113622     6B3g    8.236185  
	   6B2g    8.236185    12Ag     8.385347     7B3u    8.672275  
	   7B2u    8.672275    11B1u    9.047746     3Au     9.047746  
	  12B1u   10.299520     7B3g   12.570430     7B2g   12.570430  
	  13Ag    12.809579    13B1u   15.921596  

	Final Occupation by Irrep:
	         Ag   B1g   B2g   B3g    Au   B1u   B2u   B3u 
	DOCC [     1,    0,    0,    0,    0,    0,    0,    0 ]

  Energy converged.

  @RKS Final Energy:    -1.15110736229169

   => Energetics <=

    Nuclear Repulsion Energy =          0.7123090043801082
    One-Electron Energy =              -2.5028105215955669
    Two-Electron Energy =               0.8673994525244035
    DFT Functional Energy =            -0.2280049806480586
    Empirical Dispersion Energy =      -0.0000003169525804
    Total Energy =                     -1.1511073622916943



Properties will be evaluated at   0.000000,   0.000000,   0.000000 Bohr
  ==> Properties <==

  Nuclear Dipole Moment: (a.u.)
     X:     0.0000      Y:     0.0000      Z:     0.0000

  Electronic Dipole Moment: (a.u.)
     X:     0.0000      Y:     0.0000      Z:     0.0000

  Dipole Moment: (a.u.)
     X:     0.0000      Y:     0.0000      Z:     0.0000     Total:     0.0000

  Dipole Moment: (Debye)
     X:     0.0000      Y:     0.0000      Z:     0.0000     Total:     0.0000


  Saving occupied orbitals to File 180.

*** tstop() called on ds4 at Thu Oct  4 15:33:38 2012
Module time:
	user time   =      13.49 seconds =       0.22 minutes
	system time =       0.24 seconds =       0.00 minutes
	total time  =         14 seconds =       0.23 minutes
Total time:
	user time   =      13.49 seconds =       0.22 minutes
	system time =       0.24 seconds =       0.00 minutes
	total time  =         14 seconds =       0.23 minutes
No DF_BASIS_MP2 auxiliary basis selected, defaulting to cc-pvqz-ri

*** tstart() called on ds4
*** at Thu Oct  4 15:33:38 2012

	 --------------------------------------------------------
	                          DF-MP2                         
	      2nd-Order Density-Fitted Moller-Plesset Theory     
	              RMP2 Wavefunction,   1 Threads             
	                                                         
	        Rob Parrish, Justin Turney, Andy Simmonett,      
	           Ed Hohenstein, and C. David Sherrill          
	 --------------------------------------------------------

   => Auxiliary Basis Set <=

  Basis Set: cc-pvqz-ri
    Number of shells: 30
    Number of basis function: 110
    Number of Cartesian functions: 140
    Spherical Harmonics?: true
    Max angular momentum: 4

	 --------------------------------------------------------
	                 NBF =    60, NAUX =   110
	 --------------------------------------------------------
	   CLASS    FOCC     OCC    AOCC    AVIR     VIR    FVIR
	   PAIRS       0       1       1      59      59       0
	 --------------------------------------------------------

	----------------------------------------------------------
	 ====================> MP2 Energies <==================== 
	----------------------------------------------------------
	 Reference Energy          =      -1.1511073622916941 [H]
	 Singles Energy            =      -0.0000000000000000 [H]
	 Same-Spin Energy          =       0.0000000000000000 [H]
	 Opposite-Spin Energy      =      -0.0369147862608648 [H]
	 Correlation Energy        =      -0.0369147862608648 [H]
	 Total Energy              =      -1.1880221485525588 [H]
	----------------------------------------------------------
	 ==================> SCS-MP2 Energies <================== 
	----------------------------------------------------------
	 SCS Same-Spin Scale       =       0.2300000000000000 [-]
	 SCS Opposite-Spin Scale   =       0.5100000000000000 [-]
	 SCS Same-Spin Energy      =       0.0000000000000000 [H]
	 SCS Opposite-Spin Energy  =      -0.0188265409930411 [H]
	 SCS Correlation Energy    =      -0.0188265409930411 [H]
	 SCS Total Energy          =      -1.1699339032847351 [H]
	----------------------------------------------------------


*** tstop() called on ds4 at Thu Oct  4 15:33:38 2012
Module time:
	user time   =       0.51 seconds =       0.01 minutes
	system time =       0.02 seconds =       0.00 minutes
	total time  =          0 seconds =       0.00 minutes
Total time:
	user time   =      14.07 seconds =       0.23 minutes
	system time =       0.26 seconds =       0.00 minutes
	total time  =         14 seconds =       0.23 minutes

*** tstart() called on ds4
*** at Thu Oct  4 15:33:38 2012


         ---------------------------------------------------------
                                   SCF
            by Justin Turney, Rob Parrish, and Andy Simmonett
                              RKS Reference
                        1 Threads,    250 MiB Core
         ---------------------------------------------------------

  ==> Geometry <==

    Molecular point group: d2h
    Full point group: D_inf_h

    Geometry (in Angstrom), charge = 0, multiplicity = 1:

       Center              X                  Y                   Z       
    ------------   -----------------  -----------------  -----------------
           H          0.000000000000     0.000000000000    -0.371452000000
           H          0.000000000000     0.000000000000     0.371452000000

  Running in d2h symmetry.

  Nuclear repulsion =    0.712309004380108

  Charge       = 0
  Multiplicity = 1
  Electrons    = 2
  Nalpha       = 1
  Nbeta        = 1

  ==> Algorithm <==

  SCF Algorithm Type is PK.
  DIIS enabled.
  MOM disabled.
  Fractional occupation disabled.
  Guess Type is CORE.
  Energy threshold   = 1.00e-08
  Density threshold  = 1.00e-08
  Integral threshold = 0.00e+00

  ==> Primary Basis <==

  Basis Set: CC-PVQZ
    Number of shells: 20
    Number of basis function: 60
    Number of Cartesian functions: 70
    Spherical Harmonics?: true
    Max angular momentum: 3

  ==> DFT Potential <==

   => B2PLYP Composite Functional <= 

    B2PLYP Double Hybrid Exchange-Correlation Functional

    S. Grimme, J. Chem. Phys., 124, 034108, 2006

    Points   =           5000
    Deriv    =              1
    GGA      =           TRUE
    Meta     =          FALSE

    X_LRC        =          FALSE
    X_Hybrid     =           TRUE
    X_Alpha      =   5.300000E-01
    X_Omega      =   0.000000E+00
    C_LRC        =          FALSE
    C_Hybrid     =           TRUE
    C_SCS_Hybrid =          FALSE
    C_Alpha      =   2.700000E-01
    C_SS_Alpha   =   0.000000E+00
    C_OS_Alpha   =   0.000000E+00

   => Exchange Functionals <=

    0.4700 B88_X
    0.5300    HF 

   => Correlation Functionals <=

    0.7300 LYP_C
    0.2700 DF-MP2 

   => Molecular Quadrature <=

    Spherical Scheme = Lebedev-Laikov
    Radial Scheme    =       Treutler
    Atomic Scheme    =       Treutler

    Spherical Points =            302
    Radial Points    =             99
    Total Points     =          59122
    Total Blocks     =             94
    Max Points       =            974
    Max Functions    =             60

  ==> Pre-Iterations <==

   -------------------------------------------------------
    Irrep   Nso     Nmo     Nalpha   Nbeta   Ndocc  Nsocc
   -------------------------------------------------------
     Ag        13      13       0       0       0       0
     B1g        3       3       0       0       0       0
     B2g        7       7       0       0       0       0
     B3g        7       7       0       0       0       0
     Au         3       3       0       0       0       0
     B1u       13      13       0       0       0       0
     B2u        7       7       0       0       0       0
     B3u        7       7       0       0       0       0
   -------------------------------------------------------
    Total      60      60       1       1       1       0
   -------------------------------------------------------

  ==> Integral Setup <==

 MINTS: Wrapper to libmints.
   by Justin Turney

   Calculation information:
      Number of atoms:                   2
      Number of AO shells:              20
      Number of SO shells:              10
      Number of primitives:             24
      Number of atomic orbitals:        70
      Number of basis functions:        60

      Number of irreps:                  8
      Number of functions per irrep: [  13    3    7    7    3   13    7    7 ]

      Overlap, kinetic, potential, dipole, and quadrupole integrals
        stored in file 35.

      Computing two-electron integrals...done
      Computed 180477 non-zero two-electron integrals.
        Stored in file 33.

	Batch   1 pq = [       0,     306] index = [             0,         46971]
  ==> DiskJK: Disk-Based J/K Matrices <==

    J tasked:                  Yes
    K tasked:                  Yes
    wK tasked:                  No
    Memory (MB):               178
    Schwarz Cutoff:          0E+00

  Minimum eigenvalue in the overlap matrix is 3.2704500786E-04.
  Using Symmetric Orthogonalization.
  SCF Guess: Core (One-Electron) Hamiltonian.

  Initial RKS energy:    -0.57039289139479

  ==> Iterations <==

                        Total Energy        Delta E     Density RMS

   @RKS iter   1:    -1.09987262941412   -5.29480e-01   0.00000e+00 
   @RKS iter   2:    -1.16019678408274   -6.03242e-02   5.21576e-03 DIIS
   @RKS iter   3:    -1.16029466827208   -9.78842e-05   2.67326e-04 DIIS
   @RKS iter   4:    -1.16029573102603   -1.06275e-06   5.35003e-05 DIIS
   @RKS iter   5:    -1.16029573377011   -2.74408e-09   3.32005e-06 DIIS
   @RKS iter   6:    -1.16029573377332   -3.20721e-12   1.10780e-07 DIIS

  ==> Post-Iterations <==

	Orbital Energies (a.u.)
	-----------------------

	Doubly Occupied:                                                      

	   1Ag    -0.500627  

	Virtual:                                                              

	   1B1u    0.090844     2Ag     0.178186     1B3u    0.418982  
	   1B2u    0.418982     2B1u    0.434621     3Ag     0.714922  
	   1B3g    0.728333     1B2g    0.728333     3B1u    1.030988  
	   4Ag     1.193966     4B1u    1.446836     5Ag     1.807903  
	   1B1g    1.807903     2B3u    2.001402     2B2u    2.001402  
	   6Ag     2.216354     2B3g    2.240639     2B2g    2.240639  
	   3B3u    2.425695     3B2u    2.425695     5B1u    2.425995  
	   1Au     2.425995     6B1u    2.878387     7Ag     3.191652  
	   3B3g    3.463678     3B2g    3.463678     7B1u    3.810946  
	   8Ag     5.385429     4B2u    5.523685     4B3u    5.523685  
	   2B1g    6.038812     9Ag     6.038812     4B2g    6.569490  
	   4B3g    6.569490     5B3u    6.763436     5B2u    6.763436  
	   5B3g    6.916317     5B2g    6.916317    10Ag     7.130247  
	   2Au     7.441820     8B1u    7.441820     9B1u    7.569908  
	   6B3u    7.782054     6B2u    7.782054    11Ag     7.784433  
	   3B1g    7.784433    10B1u    8.042028     6B3g    8.162050  
	   6B2g    8.162050    12Ag     8.313073     7B3u    8.606572  
	   7B2u    8.606572    11B1u    8.980908     3Au     8.980908  
	  12B1u   10.195478     7B3g   12.496793     7B2g   12.496793  
	  13Ag    12.705643    13B1u   15.827555  

	Final Occupation by Irrep:
	         Ag   B1g   B2g   B3g    Au   B1u   B2u   B3u 
	DOCC [     1,    0,    0,    0,    0,    0,    0,    0 ]

  Energy converged.

  @RKS Final Energy:    -1.16029573377332

   => Energetics <=

    Nuclear Repulsion Energy =          0.7123090043801082
    One-Electron Energy =              -2.5029288201835431
    Two-Electron Energy =               0.9664595759519257
    DFT Functional Energy =            -0.3361354939218079
    Empirical Dispersion Energy =       0.0000000000000000
    Total Energy =                     -1.1602957337733173



Properties will be evaluated at   0.000000,   0.000000,   0.000000 Bohr
  ==> Properties <==

  Nuclear Dipole Moment: (a.u.)
     X:     0.0000      Y:     0.0000      Z:     0.0000

  Electronic Dipole Moment: (a.u.)
     X:     0.0000      Y:     0.0000      Z:     0.0000

  Dipole Moment: (a.u.)
     X:     0.0000      Y:     0.0000      Z:     0.0000     Total:     0.0000

  Dipole Moment: (Debye)
     X:     0.0000      Y:     0.0000      Z:     0.0000     Total:     0.0000


  Saving occupied orbitals to File 180.

*** tstop() called on ds4 at Thu Oct  4 15:33:48 2012
Module time:
	user time   =      11.12 seconds =       0.19 minutes
	system time =       0.21 seconds =       0.00 minutes
	total time  =         10 seconds =       0.17 minutes
Total time:
	user time   =      25.23 seconds =       0.42 minutes
	system time =       0.47 seconds =       0.01 minutes
	total time  =         24 seconds =       0.40 minutes
No DF_BASIS_MP2 auxiliary basis selected, defaulting to cc-pvqz-ri

*** tstart() called on ds4
*** at Thu Oct  4 15:33:48 2012

	 --------------------------------------------------------
	                          DF-MP2                         
	      2nd-Order Density-Fitted Moller-Plesset Theory     
	              RMP2 Wavefunction,   1 Threads             
	                                                         
	        Rob Parrish, Justin Turney, Andy Simmonett,      
	           Ed Hohenstein, and C. David Sherrill          
	 --------------------------------------------------------

   => Auxiliary Basis Set <=

  Basis Set: cc-pvqz-ri
    Number of shells: 30
    Number of basis function: 110
    Number of Cartesian functions: 140
    Spherical Harmonics?: true
    Max angular momentum: 4

	 --------------------------------------------------------
	                 NBF =    60, NAUX =   110
	 --------------------------------------------------------
	   CLASS    FOCC     OCC    AOCC    AVIR     VIR    FVIR
	   PAIRS       0       1       1      59      59       0
	 --------------------------------------------------------

	----------------------------------------------------------
	 ====================> MP2 Energies <==================== 
	----------------------------------------------------------
	 Reference Energy          =      -1.1602957337733173 [H]
	 Singles Energy            =      -0.0000000000000001 [H]
	 Same-Spin Energy          =       0.0000000000000000 [H]
	 Opposite-Spin Energy      =      -0.0391388783475196 [H]
	 Correlation Energy        =      -0.0391388783475196 [H]
	 Total Energy              =      -1.1994346121208370 [H]
	----------------------------------------------------------
	 ==================> SCS-MP2 Energies <================== 
	----------------------------------------------------------
	 SCS Same-Spin Scale       =       0.3333333333333333 [-]
	 SCS Opposite-Spin Scale   =       1.2000000000000000 [-]
	 SCS Same-Spin Energy      =       0.0000000000000000 [H]
	 SCS Opposite-Spin Energy  =      -0.0469666540170235 [H]
	 SCS Correlation Energy    =      -0.0469666540170236 [H]
	 SCS Total Energy          =      -1.2072623877903408 [H]
	----------------------------------------------------------


*** tstop() called on ds4 at Thu Oct  4 15:33:49 2012
Module time:
	user time   =       0.63 seconds =       0.01 minutes
	system time =       0.01 seconds =       0.00 minutes
	total time  =          1 seconds =       0.02 minutes
Total time:
	user time   =      25.88 seconds =       0.43 minutes
	system time =       0.48 seconds =       0.01 minutes
	total time  =         25 seconds =       0.42 minutes

*** PSI4 exiting successfully. Buy a developer a beer!
