
    -----------------------------------------------------------------------
          Psi4: An Open-Source Ab Initio Electronic Structure Package
                               Psi4 1.1rc3.dev5 

                         Git: Rev {master} 3fbd859 


    R. M. Parrish, L. A. Burns, D. G. A. Smith, A. C. Simmonett,
    A. E. DePrince III, E. G. Hohenstein, U. Bozkaya, A. Yu. Sokolov,
    R. Di Remigio, R. M. Richard, J. F. Gonthier, A. M. James,
    H. R. McAlexander, A. Kumar, M. Saitow, X. Wang, B. P. Pritchard,
    P. Verma, H. F. Schaefer III, K. Patkowski, R. A. King, E. F. Valeev,
    F. A. Evangelista, J. M. Turney, T. D. Crawford, and C. D. Sherrill,
    J. Chem. Theory Comput. in press (2017).
    (doi: 10.1021/acs.jctc.7b00174)

    -----------------------------------------------------------------------


    Psi4 started on: Monday, 15 May 2017 03:35PM

    Process ID:  14011
    PSIDATADIR: /home/psilocaluser/gits/hrw-direct/objdir4/stage/usr/local/psi4/share/psi4
    Memory:     500.0 MiB
    Threads:    1
    
  ==> Input File <==

--------------------------------------------------------------------------
#! Double-hybrid density functional B2PYLP. Reproduces portion of Table I
#! in S. Grimme's J. Chem. Phys 124 034108 (2006) paper defining the functional.

molecule h2o {
  0 1
  O
  H  1 0.960729
  H  1 0.960729  2 104.92326
}
set basis cc-pvqz

molecule h2 {
  0 1
  H
  H  1 0.742904
}
set basis cc-pvqz

molecule n2 {
  0 1
  N
  N  1 1.090902
}
set basis cc-pvqz

molecule ethene {
  0 1
  C
  C  1 b1
  H  1 b2  2 a1
  H  1 b2  2 a1  3 -180.000000
  H  2 b2  1 a1  4 -180.000000
  H  2 b2  1 a1  3 -180.000000

  a1 =  121.7305456211
  b1 =    1.3247888503
  b2 =    1.0826774761
}
set basis cc-pvqz

set reference rks
set freeze_core false
set dft_radial_points 99
set dft_spherical_points 302

#activate(h2)
#eb2plyp = energy('dsd-pbep86')
#compare_values(-1.169933887984, eb2plyp, 4, 'H2 with DSD-PBEP86')       #TEST
#clean()

activate(h2)
eb2plyp = energy('b2plyp')
compare_values(-1.1709, eb2plyp, 4, 'H2 with B2PLYP')       #TEST
clean()

activate(h2o)
eb2plyp = energy('b2plyp')
compare_values(-76.4309, eb2plyp, 4, 'Water')   #TEST
clean()

#activate(n2)
#eb2plyp = energy('b2plyp')
#compare_values(-109.5302, eb2plyp, 4, 'N2')     #TEST
#clean()

# works but too long for test case              #TEST
#activate(ethene)                                #TEST
#eb2plyp = energy('b2plyp')                      #TEST
#compare_values(-78.5666, eb2plyp, 4, 'Ethene')  #TEST
#clean()                                         #TEST

--------------------------------------------------------------------------

*** tstart() called on psinet
*** at Mon May 15 15:35:53 2017

   => Loading Basis Set <=

    Name: CC-PVQZ
    Role: ORBITAL
    Keyword: BASIS
    atoms 1-2 entry H          line    20 file /home/psilocaluser/gits/hrw-direct/objdir4/stage/usr/local/psi4/share/psi4/basis/cc-pvqz.gbs 


         ---------------------------------------------------------
                                   SCF
            by Justin Turney, Rob Parrish, and Andy Simmonett
                              RKS Reference
                        1 Threads,    500 MiB Core
         ---------------------------------------------------------

  ==> Geometry <==

    Molecular point group: d2h
    Full point group: D_inf_h

    Geometry (in Angstrom), charge = 0, multiplicity = 1:

       Center              X                  Y                   Z               Mass       
    ------------   -----------------  -----------------  -----------------  -----------------
           H          0.000000000000     0.000000000000    -0.371452000000     1.007825032070
           H          0.000000000000     0.000000000000     0.371452000000     1.007825032070

  Running in d2h symmetry.

  Rotational constants: A = ************  B =     60.61442  C =     60.61442 [cm^-1]
  Rotational constants: A = ************  B = 1817174.59788  C = 1817174.59788 [MHz]
  Nuclear repulsion =    0.712309004380108

  Charge       = 0
  Multiplicity = 1
  Electrons    = 2
  Nalpha       = 1
  Nbeta        = 1

  ==> Algorithm <==

  SCF Algorithm Type is DF.
  DIIS enabled.
  MOM disabled.
  Fractional occupation disabled.
  Guess Type is SAD.
  Energy threshold   = 1.00e-06
  Density threshold  = 1.00e-06
  Integral threshold = 0.00e+00

  ==> Primary Basis <==

  Basis Set: CC-PVQZ
    Blend: CC-PVQZ
    Number of shells: 20
    Number of basis function: 60
    Number of Cartesian functions: 70
    Spherical Harmonics?: true
    Max angular momentum: 3

  ==> DFT Potential <==

   => B2PLYP Composite Functional <= 

    B2PLYP Double Hybrid Exchange-Correlation Functional

    S. Grimme, J. Chem. Phys., 124, 034108, 2006

    Points   =           5000
    Deriv    =              1
    GGA      =           TRUE
    Meta     =          FALSE

    X_LRC        =          FALSE
    X_Hybrid     =           TRUE
    X_Alpha      =   5.300000E-01
    X_Omega      =   0.000000E+00
    C_LRC        =          FALSE
    C_Hybrid     =           TRUE
    C_Alpha      =   2.700000E-01
    C_Omega      =   0.000000E+00

   => Exchange Functionals <=

    0.4700   B88_X
    0.5300      HF 

   => Correlation Functionals <=

    0.7300   LYP_C
    0.2700     MP2 

   => Molecular Quadrature <=

    Radial Scheme    =       TREUTLER
    Pruning Scheme   =           FLAT
    Nuclear Scheme   =       TREUTLER

    BS radius alpha  =              1
    Pruning alpha    =              1
    Radial Points    =             99
    Spherical Points =            302
    Total Points     =          59210
    Total Blocks     =             56
    Max Points       =           3839
    Max Functions    =             60

   => Loading Basis Set <=

    Name: (CC-PVQZ AUX)
    Role: JKFIT
    Keyword: DF_BASIS_SCF
    atoms 1-2 entry H          line    50 file /home/psilocaluser/gits/hrw-direct/objdir4/stage/usr/local/psi4/share/psi4/basis/cc-pvqz-jkfit.gbs 

  ==> Pre-Iterations <==

   -------------------------------------------------------
    Irrep   Nso     Nmo     Nalpha   Nbeta   Ndocc  Nsocc
   -------------------------------------------------------
     Ag        13      13       0       0       0       0
     B1g        3       3       0       0       0       0
     B2g        7       7       0       0       0       0
     B3g        7       7       0       0       0       0
     Au         3       3       0       0       0       0
     B1u       13      13       0       0       0       0
     B2u        7       7       0       0       0       0
     B3u        7       7       0       0       0       0
   -------------------------------------------------------
    Total      60      60       1       1       1       0
   -------------------------------------------------------

  ==> Integral Setup <==

  ==> DFJK: Density-Fitted J/K Matrices <==

    J tasked:                  Yes
    K tasked:                  Yes
    wK tasked:                  No
    OpenMP threads:              1
    Integrals threads:           1
    Memory (MB):               375
    Algorithm:                Core
    Integral Cache:           NONE
    Schwarz Cutoff:          1E-12
    Fitting Condition:       1E-12

   => Auxiliary Basis Set <=

  Basis Set: (CC-PVQZ AUX)
    Blend: CC-PVQZ-JKFIT
    Number of shells: 26
    Number of basis function: 102
    Number of Cartesian functions: 132
    Spherical Harmonics?: true
    Max angular momentum: 4

  Minimum eigenvalue in the overlap matrix is 3.2704500786E-04.
  Using Symmetric Orthogonalization.

  SCF Guess: Superposition of Atomic Densities via on-the-fly atomic UHF.

  ==> Iterations <==

                           Total Energy        Delta E     RMS |[F,P]|

   @DF-RKS iter   0:    -0.92103079527812   -9.21031e-01   1.14504e-02 
   @DF-RKS iter   1:    -1.16025532203686   -2.39225e-01   3.87398e-04 
   @DF-RKS iter   2:    -1.16029669612704   -4.13741e-05   1.83723e-05 DIIS
   @DF-RKS iter   3:    -1.16029689089498   -1.94768e-07   2.65842e-06 DIIS
   @DF-RKS iter   4:    -1.16029689379607   -2.90110e-09   4.11943e-08 DIIS

  ==> Post-Iterations <==

    Orbital Energies (a.u.)
    -----------------------

    Doubly Occupied:                                                      

       1Ag    -0.500628  

    Virtual:                                                              

       1B1u    0.090854     2Ag     0.178206     1B2u    0.418987  
       1B3u    0.418987     2B1u    0.434617     3Ag     0.714927  
       1B2g    0.728355     1B3g    0.728355     3B1u    1.031006  
       4Ag     1.194225     4B1u    1.446848     5Ag     1.807930  
       1B1g    1.807930     2B2u    2.001417     2B3u    2.001417  
       6Ag     2.216414     2B2g    2.240741     2B3g    2.240741  
       3B2u    2.425705     3B3u    2.425705     5B1u    2.426009  
       1Au     2.426009     6B1u    2.878453     7Ag     3.191868  
       3B2g    3.463793     3B3g    3.463793     7B1u    3.810981  
       8Ag     5.385866     4B2u    5.523814     4B3u    5.523814  
       2B1g    6.038894     9Ag     6.038894     4B3g    6.569584  
       4B2g    6.569584     5B2u    6.763458     5B3u    6.763458  
       5B3g    6.916568     5B2g    6.916568    10Ag     7.130248  
       2Au     7.441959     8B1u    7.441959     9B1u    7.570081  
       6B2u    7.782116     6B3u    7.782116    11Ag     7.784492  
       3B1g    7.784492    10B1u    8.042018     6B2g    8.162075  
       6B3g    8.162075    12Ag     8.313205     7B2u    8.606633  
       7B3u    8.606633    11B1u    8.980929     3Au     8.980929  
      12B1u   10.195520     7B2g   12.496867     7B3g   12.496867  
      13Ag    12.705779    13B1u   15.827630  

    Final Occupation by Irrep:
             Ag   B1g   B2g   B3g    Au   B1u   B2u   B3u 
    DOCC [     1,    0,    0,    0,    0,    0,    0,    0 ]

  Energy converged.

  @DF-RKS Final Energy:    -1.16029689379607

   => Energetics <=

    Nuclear Repulsion Energy =              0.7123090043801082
    One-Electron Energy =                  -2.5029280501761666
    Two-Electron Energy =                   0.9664576183245006
    DFT Exchange-Correlation Energy =      -0.3361354663245141
    Empirical Dispersion Energy =           0.0000000000000000
    PCM Polarization Energy =               0.0000000000000000
    EFP Energy =                            0.0000000000000000
    Total Energy =                         -1.1602968937960720



Properties will be evaluated at   0.000000,   0.000000,   0.000000 Bohr

Properties computed using the SCF density matrix

  Nuclear Dipole Moment: (a.u.)
     X:     0.0000      Y:     0.0000      Z:     0.0000

  Electronic Dipole Moment: (a.u.)
     X:     0.0000      Y:     0.0000      Z:     0.0000

  Dipole Moment: (a.u.)
     X:     0.0000      Y:     0.0000      Z:     0.0000     Total:     0.0000

  Dipole Moment: (Debye)
     X:     0.0000      Y:     0.0000      Z:     0.0000     Total:     0.0000


*** tstop() called on psinet at Mon May 15 15:35:55 2017
Module time:
	user time   =       2.14 seconds =       0.04 minutes
	system time =       0.05 seconds =       0.00 minutes
	total time  =          2 seconds =       0.03 minutes
Total time:
	user time   =       2.14 seconds =       0.04 minutes
	system time =       0.05 seconds =       0.00 minutes
	total time  =          2 seconds =       0.03 minutes

*** tstart() called on psinet
*** at Mon May 15 15:35:55 2017

   => Loading Basis Set <=

    Name: (CC-PVQZ AUX)
    Role: RIFIT
    Keyword: DF_BASIS_MP2
    atoms 1-2 entry H          line    18 file /home/psilocaluser/gits/hrw-direct/objdir4/stage/usr/local/psi4/share/psi4/basis/cc-pvqz-ri.gbs 

	 --------------------------------------------------------
	                          DF-MP2                         
	      2nd-Order Density-Fitted Moller-Plesset Theory     
	              RMP2 Wavefunction,   1 Threads             
	                                                         
	        Rob Parrish, Justin Turney, Andy Simmonett,      
	           Ed Hohenstein, and C. David Sherrill          
	 --------------------------------------------------------

   => Auxiliary Basis Set <=

  Basis Set: (CC-PVQZ AUX)
    Blend: CC-PVQZ-RI
    Number of shells: 30
    Number of basis function: 110
    Number of Cartesian functions: 140
    Spherical Harmonics?: true
    Max angular momentum: 4

	 --------------------------------------------------------
	                 NBF =    60, NAUX =   110
	 --------------------------------------------------------
	   CLASS    FOCC     OCC    AOCC    AVIR     VIR    FVIR
	   PAIRS       0       1       1      59      59       0
	 --------------------------------------------------------

	-----------------------------------------------------------
	 ==================> DF-MP2 Energies <==================== 
	-----------------------------------------------------------
	 Reference Energy          =      -1.1602968937960718 [Eh]
	 Singles Energy            =      -0.0000000000000083 [Eh]
	 Same-Spin Energy          =       0.0000000000000000 [Eh]
	 Opposite-Spin Energy      =      -0.0391388556206881 [Eh]
	 Correlation Energy        =      -0.0391388556206964 [Eh]
	 Total Energy              =      -1.1994357494167682 [Eh]
	-----------------------------------------------------------
	 ================> DF-SCS-MP2 Energies <================== 
	-----------------------------------------------------------
	 SCS Same-Spin Scale       =       0.3333333333333333 [-]
	 SCS Opposite-Spin Scale   =       1.2000000000000000 [-]
	 SCS Same-Spin Energy      =       0.0000000000000000 [Eh]
	 SCS Opposite-Spin Energy  =      -0.0469666267448257 [Eh]
	 SCS Correlation Energy    =      -0.0469666267448340 [Eh]
	 SCS Total Energy          =      -1.2072635205409059 [Eh]
	-----------------------------------------------------------



    B2PLYP Energy Summary
    -------------------------
    DFT Reference Energy                  =    -1.1602968937960718
    Scaled MP2 Correlation                =    -0.0105674910175880
    @Final double-hybrid DFT total energy =    -1.1708643848136600


*** tstop() called on psinet at Mon May 15 15:35:56 2017
Module time:
	user time   =       0.13 seconds =       0.00 minutes
	system time =       0.00 seconds =       0.00 minutes
	total time  =          1 seconds =       0.02 minutes
Total time:
	user time   =       2.27 seconds =       0.04 minutes
	system time =       0.05 seconds =       0.00 minutes
	total time  =          3 seconds =       0.05 minutes
	H2 with B2PLYP....................................................PASSED

*** tstart() called on psinet
*** at Mon May 15 15:35:56 2017

   => Loading Basis Set <=

    Name: CC-PVQZ
    Role: ORBITAL
    Keyword: BASIS
    atoms 1   entry O          line   319 file /home/psilocaluser/gits/hrw-direct/objdir4/stage/usr/local/psi4/share/psi4/basis/cc-pvqz.gbs 
    atoms 2-3 entry H          line    20 file /home/psilocaluser/gits/hrw-direct/objdir4/stage/usr/local/psi4/share/psi4/basis/cc-pvqz.gbs 


         ---------------------------------------------------------
                                   SCF
            by Justin Turney, Rob Parrish, and Andy Simmonett
                              RKS Reference
                        1 Threads,    500 MiB Core
         ---------------------------------------------------------

  ==> Geometry <==

    Molecular point group: c2v
    Full point group: C2v

    Geometry (in Angstrom), charge = 0, multiplicity = 1:

       Center              X                  Y                   Z               Mass       
    ------------   -----------------  -----------------  -----------------  -----------------
           O          0.000000000000     0.000000000000    -0.065511056325    15.994914619560
           H          0.000000000000    -0.761805723188     0.519854002043     1.007825032070
           H          0.000000000000     0.761805723188     0.519854002043     1.007825032070

  Running in c2v symmetry.

  Rotational constants: A =     27.48357  B =     14.41096  C =      9.45385 [cm^-1]
  Rotational constants: A = 823936.74731  B = 432029.69373  C = 283419.30880 [MHz]
  Nuclear repulsion =    9.160245516477428

  Charge       = 0
  Multiplicity = 1
  Electrons    = 10
  Nalpha       = 5
  Nbeta        = 5

  ==> Algorithm <==

  SCF Algorithm Type is DF.
  DIIS enabled.
  MOM disabled.
  Fractional occupation disabled.
  Guess Type is SAD.
  Energy threshold   = 1.00e-06
  Density threshold  = 1.00e-06
  Integral threshold = 0.00e+00

  ==> Primary Basis <==

  Basis Set: CC-PVQZ
    Blend: CC-PVQZ
    Number of shells: 35
    Number of basis function: 115
    Number of Cartesian functions: 140
    Spherical Harmonics?: true
    Max angular momentum: 4

  ==> DFT Potential <==

   => B2PLYP Composite Functional <= 

    B2PLYP Double Hybrid Exchange-Correlation Functional

    S. Grimme, J. Chem. Phys., 124, 034108, 2006

    Points   =           5000
    Deriv    =              1
    GGA      =           TRUE
    Meta     =          FALSE

    X_LRC        =          FALSE
    X_Hybrid     =           TRUE
    X_Alpha      =   5.300000E-01
    X_Omega      =   0.000000E+00
    C_LRC        =          FALSE
    C_Hybrid     =           TRUE
    C_Alpha      =   2.700000E-01
    C_Omega      =   0.000000E+00

   => Exchange Functionals <=

    0.4700   B88_X
    0.5300      HF 

   => Correlation Functionals <=

    0.7300   LYP_C
    0.2700     MP2 

   => Molecular Quadrature <=

    Radial Scheme    =       TREUTLER
    Pruning Scheme   =           FLAT
    Nuclear Scheme   =       TREUTLER

    BS radius alpha  =              1
    Pruning alpha    =              1
    Radial Points    =             99
    Spherical Points =            302
    Total Points     =          88462
    Total Blocks     =             89
    Max Points       =           4952
    Max Functions    =            115

   => Loading Basis Set <=

    Name: (CC-PVQZ AUX)
    Role: JKFIT
    Keyword: DF_BASIS_SCF
    atoms 1   entry O          line   252 file /home/psilocaluser/gits/hrw-direct/objdir4/stage/usr/local/psi4/share/psi4/basis/cc-pvqz-jkfit.gbs 
    atoms 2-3 entry H          line    50 file /home/psilocaluser/gits/hrw-direct/objdir4/stage/usr/local/psi4/share/psi4/basis/cc-pvqz-jkfit.gbs 

  ==> Pre-Iterations <==

   -------------------------------------------------------
    Irrep   Nso     Nmo     Nalpha   Nbeta   Ndocc  Nsocc
   -------------------------------------------------------
     A1        42      42       0       0       0       0
     A2        17      17       0       0       0       0
     B1        23      23       0       0       0       0
     B2        33      33       0       0       0       0
   -------------------------------------------------------
    Total     115     115       5       5       5       0
   -------------------------------------------------------

  ==> Integral Setup <==

  ==> DFJK: Density-Fitted J/K Matrices <==

    J tasked:                  Yes
    K tasked:                  Yes
    wK tasked:                  No
    OpenMP threads:              1
    Integrals threads:           1
    Memory (MB):               375
    Algorithm:                Core
    Integral Cache:           NONE
    Schwarz Cutoff:          1E-12
    Fitting Condition:       1E-12

   => Auxiliary Basis Set <=

  Basis Set: (CC-PVQZ AUX)
    Blend: CC-PVQZ-JKFIT
    Number of shells: 54
    Number of basis function: 208
    Number of Cartesian functions: 274
    Spherical Harmonics?: true
    Max angular momentum: 5

  Minimum eigenvalue in the overlap matrix is 4.2525204562E-04.
  Using Symmetric Orthogonalization.

  SCF Guess: Superposition of Atomic Densities via on-the-fly atomic UHF.

  ==> Iterations <==

                           Total Energy        Delta E     RMS |[F,P]|

   @DF-RKS iter   0:   -76.34402186989180   -7.63440e+01   2.77784e-02 
   @DF-RKS iter   1:   -76.27406847030339    6.99534e-02   6.48546e-03 
   @DF-RKS iter   2:   -76.27165346829838    2.41500e-03   7.07666e-03 DIIS
   @DF-RKS iter   3:   -76.33209437322326   -6.04409e-02   3.14912e-04 DIIS
   @DF-RKS iter   4:   -76.33227223470520   -1.77861e-04   7.60706e-05 DIIS
   @DF-RKS iter   5:   -76.33228628909865   -1.40544e-05   1.19699e-05 DIIS
   @DF-RKS iter   6:   -76.33228688571175   -5.96613e-07   1.51270e-06 DIIS
   @DF-RKS iter   7:   -76.33228689370300   -7.99125e-09   1.45527e-07 DIIS

  ==> Post-Iterations <==

    Orbital Energies (a.u.)
    -----------------------

    Doubly Occupied:                                                      

       1A1   -19.724935     2A1    -1.152192     1B2    -0.608934  
       3A1    -0.470452     1B1    -0.396166  

    Virtual:                                                              

       4A1     0.054682     2B2     0.118367     3B2     0.359056  
       5A1     0.382005     6A1     0.402220     2B1     0.483719  
       7A1     0.517105     4B2     0.522707     1A2     0.563676  
       3B1     0.628443     8A1     0.745484     5B2     0.828313  
       9A1     0.998393     6B2     1.040068     7B2     1.237755  
      10A1     1.290617     4B1     1.350024     2A2     1.357107  
      11A1     1.451822    12A1     1.533572     8B2     1.751904  
       5B1     1.935738    13A1     2.056834     3A2     2.146158  
       9B2     2.230293     6B1     2.258823    14A1     2.351456  
      10B2     2.375162     7B1     2.408484     4A2     2.446870  
      11B2     2.507389    15A1     2.530425    16A1     2.684408  
       5A2     2.695749     8B1     2.860910    12B2     2.959221  
      13B2     3.123438    17A1     3.164621    18A1     3.264181  
      14B2     3.431559    19A1     3.615596     9B1     3.792631  
       6A2     3.908347    10B1     3.972772    20A1     4.003136  
      15B2     4.226883    21A1     4.264472    22A1     4.468065  
      11B1     4.528742    16B2     4.598134     7A2     4.701359  
      17B2     5.118790    23A1     5.180958    12B1     5.799050  
      24A1     5.909133     8A2     6.062529    18B2     6.122480  
       9A2     6.498090    25A1     6.593350    19B2     6.845804  
      20B2     7.039810    13B1     7.099624    14B1     7.166353  
      10A2     7.221698    26A1     7.316102    21B2     7.327142  
      27A1     7.365911    15B1     7.787497    22B2     7.834676  
      16B1     7.873632    28A1     7.911737    11A2     7.933318  
      23B2     8.049755    12A2     8.107533    29A1     8.109497  
      30A1     8.182634    24B2     8.400561    17B1     8.581564  
      31A1     8.657033    13A2     8.698421    25B2     8.975465  
      32A1     9.112831    26B2     9.147336    33A1     9.608911  
      27B2     9.701271    18B1     9.970735    34A1    10.131944  
      19B1    10.255106    14A2    10.459107    35A1    10.505250  
      28B2    10.965360    15A2    11.088364    36A1    11.244576  
      20B1    11.320348    29B2    11.348677    21B1    11.502507  
      37A1    11.831575    22B1    11.967710    38A1    12.064294  
      16A2    12.070327    30B2    12.137306    39A1    13.245997  
      31B2    13.465334    23B1    13.908125    17A2    14.271633  
      40A1    14.292999    32B2    14.460091    41A1    16.072779  
      33B2    16.428496    42A1    43.434435  

    Final Occupation by Irrep:
             A1    A2    B1    B2 
    DOCC [     3,    0,    1,    1 ]

  Energy converged.

  @DF-RKS Final Energy:   -76.33228689370300

   => Energetics <=

    Nuclear Repulsion Energy =              9.1602455164774277
    One-Electron Energy =                -123.0646677073415987
    Two-Electron Energy =                  42.0442843606065111
    DFT Exchange-Correlation Energy =      -4.4721490634453360
    Empirical Dispersion Energy =           0.0000000000000000
    PCM Polarization Energy =               0.0000000000000000
    EFP Energy =                            0.0000000000000000
    Total Energy =                        -76.3322868937029853



Properties will be evaluated at   0.000000,   0.000000,   0.000000 Bohr

Properties computed using the SCF density matrix

  Nuclear Dipole Moment: (a.u.)
     X:     0.0000      Y:     0.0000      Z:     0.9744

  Electronic Dipole Moment: (a.u.)
     X:     0.0000      Y:     0.0000      Z:    -0.2083

  Dipole Moment: (a.u.)
     X:     0.0000      Y:     0.0000      Z:     0.7661     Total:     0.7661

  Dipole Moment: (Debye)
     X:     0.0000      Y:     0.0000      Z:     1.9473     Total:     1.9473


*** tstop() called on psinet at Mon May 15 15:36:04 2017
Module time:
	user time   =       8.87 seconds =       0.15 minutes
	system time =       0.04 seconds =       0.00 minutes
	total time  =          8 seconds =       0.13 minutes
Total time:
	user time   =      11.15 seconds =       0.19 minutes
	system time =       0.09 seconds =       0.00 minutes
	total time  =         11 seconds =       0.18 minutes

*** tstart() called on psinet
*** at Mon May 15 15:36:04 2017

   => Loading Basis Set <=

    Name: (CC-PVQZ AUX)
    Role: RIFIT
    Keyword: DF_BASIS_MP2
    atoms 1   entry O          line   390 file /home/psilocaluser/gits/hrw-direct/objdir4/stage/usr/local/psi4/share/psi4/basis/cc-pvqz-ri.gbs 
    atoms 2-3 entry H          line    18 file /home/psilocaluser/gits/hrw-direct/objdir4/stage/usr/local/psi4/share/psi4/basis/cc-pvqz-ri.gbs 

	 --------------------------------------------------------
	                          DF-MP2                         
	      2nd-Order Density-Fitted Moller-Plesset Theory     
	              RMP2 Wavefunction,   1 Threads             
	                                                         
	        Rob Parrish, Justin Turney, Andy Simmonett,      
	           Ed Hohenstein, and C. David Sherrill          
	 --------------------------------------------------------

   => Auxiliary Basis Set <=

  Basis Set: (CC-PVQZ AUX)
    Blend: CC-PVQZ-RI
    Number of shells: 60
    Number of basis function: 242
    Number of Cartesian functions: 321
    Spherical Harmonics?: true
    Max angular momentum: 5

	 --------------------------------------------------------
	                 NBF =   115, NAUX =   242
	 --------------------------------------------------------
	   CLASS    FOCC     OCC    AOCC    AVIR     VIR    FVIR
	   PAIRS       0       5       5     110     110       0
	 --------------------------------------------------------

	-----------------------------------------------------------
	 ==================> DF-MP2 Energies <==================== 
	-----------------------------------------------------------
	 Reference Energy          =     -76.3322868937029995 [Eh]
	 Singles Energy            =      -0.0000000000087931 [Eh]
	 Same-Spin Energy          =      -0.0851928864965540 [Eh]
	 Opposite-Spin Energy      =      -0.2798886987982685 [Eh]
	 Correlation Energy        =      -0.3650815853036156 [Eh]
	 Total Energy              =     -76.6973684790066130 [Eh]
	-----------------------------------------------------------
	 ================> DF-SCS-MP2 Energies <================== 
	-----------------------------------------------------------
	 SCS Same-Spin Scale       =       0.3333333333333333 [-]
	 SCS Opposite-Spin Scale   =       1.2000000000000000 [-]
	 SCS Same-Spin Energy      =      -0.0283976288321847 [Eh]
	 SCS Opposite-Spin Energy  =      -0.3358664385579222 [Eh]
	 SCS Correlation Energy    =      -0.3642640673989000 [Eh]
	 SCS Total Energy          =     -76.6965509611019058 [Eh]
	-----------------------------------------------------------



    B2PLYP Energy Summary
    -------------------------
    DFT Reference Energy                  =   -76.3322868937029995
    Scaled MP2 Correlation                =    -0.0985720280319762
    @Final double-hybrid DFT total energy =   -76.4308589217349805


*** tstop() called on psinet at Mon May 15 15:36:05 2017
Module time:
	user time   =       0.31 seconds =       0.01 minutes
	system time =       0.02 seconds =       0.00 minutes
	total time  =          1 seconds =       0.02 minutes
Total time:
	user time   =      11.46 seconds =       0.19 minutes
	system time =       0.11 seconds =       0.00 minutes
	total time  =         12 seconds =       0.20 minutes
	Water.............................................................PASSED

*** Psi4 exiting successfully. Buy a developer a beer!
