    -----------------------------------------------------------------------
          PSI4: An Open-Source Ab Initio Electronic Structure Package
                              PSI 4.0.0-alpha Driver
    T. D. Crawford, C. D. Sherrill, E. F. Valeev, J. T. Fermann, R. A. King,
    M. L. Leininger, S. T. Brown, C. L. Janssen, E. T. Seidl, J. P. Kenny,
    and W. D. Allen, J. Comput. Chem. 28, 1610-1616 (2007)

                         Additional Contributions by
    Francesco Evangelista, Andrew Simmonett, Justin Turney, Jeremiah Wilke
    -----------------------------------------------------------------------


    Using LocalCommunicator (Number of processes = 1)

    Memory level set to 256.000 MB

  ==> Input File <==

--------------------------------------------------------------------------
#! SCF STO-3G geometry optimzation, with Z-matrix input, by finite-differences

# Same test case as scf5
nucenergy = 8.9064890670                            #TEST
refenergy = -74.965901192                           #TEST

molecule h2o {
     O
     H 1 1.0
     H 1 1.0 2 104.5
}

set globals {
  diis false
  basis sto-3g
  e_converge 10
  d_converge 10
}

set findif {
  points 3
}

cycle = 0
returnValue = 0
thisenergy = 0.0

# initialize global molecule
h2o.update_geometry()

# optimization loop
while (cycle < 20 and returnValue != PsiReturnType.EndLoop):
    # generate geometry list for finite differences (undisplaced geometry is last)
    geoms = fd_geoms_1_0()
    #initialize vector of correct length
    if cycle == 0:
        E = PsiMod.Vector(len(geoms))
    # compute energy for each geometry
    for i in range(len(geoms)):
        h2o.set_geometry(geoms[i])
        E.set(0, i, energy('scf'))
    thisenergy = E.get(0,len(geoms)-1)
    # pass energies to function to compute gradient
    fd_grad_1_0(E)
    #take optimization step
    returnValue = optking()
    cycle = cycle + 1

# if you want to print energies from python
#print 'Energies\n'
#for i in range(len(geoms)):
#    print '{0:5} {1:20.10f}\n'.format(i,E[i])

compare_values(nucenergy, h2o.nuclear_repulsion_energy(), 3, "Nuclear repulsion energy")    #TEST
compare_values(refenergy, thisenergy, 3, "Reference energy")                                #TEST

clean()

--------------------------------------------------------------------------
	Using finite-differences of energies to determine gradients.
	Generating geometries for use with 3-point formula.
	Displacement size will be 1.00e-02.
	Number of atoms is 3.
    -Cartesian displacement SALCs per irrep:
    Irrep  #SALCs
    -----  ------
      0       3
      1       1
      2       2
      3       3

	Number of SALC's is 3.
	irrep = 0, ncomponent = 1
		0: atom 0, direction 2, coef 1.000000
	irrep = 0, ncomponent = 2
		0: atom 1, direction 1, coef 0.707107
		1: atom 2, direction 1, coef -0.707107
	irrep = 0, ncomponent = 2
		0: atom 1, direction 2, coef 0.707107
		1: atom 2, direction 2, coef 0.707107
	Number of displacements (including reference) is 7.

*** tstart() called on mac10147
*** at Tue Jun 14 09:57:11 2011

	There are an even number of electrons - assuming singlet.
	Specify the multiplicity with the MULTP option in the
	input if this is incorrect


         ---------------------------------------------------------
                                   SCF
            by Justin Turney, Rob Parrish, and Andy Simmonnett
                              RHF Reference
                        1 Threads,    256 MiB Core
         ---------------------------------------------------------

  ==> Geometry <==

    Molecular point group: c2v

    Geometry (in Angstrom), charge = 0, multiplicity = 1:

       Center              X                  Y                   Z       
    ------------   -----------------  -----------------  -----------------
           O          0.000000000000     0.000000000000    -0.068664299857
           H          0.000000000000     0.790689573744     0.544876133590
           H          0.000000000000    -0.790689573744     0.544876133590

    Number of unique atoms: 2

    Atoms equivalency:
       unique atom 0: 0 
       unique atom 1: 1 2 

  Running in c2v symmetry.

  Nuclear repulsion =    8.794608508058701

  Charge       = 0
  Multiplicity = 1
  Electrons    = 10
  Nalpha       = 5
  Nbeta        = 5

  ==> Algorithm <==

  SCF Algorithm Type is PK.
  DIIS disabled.
  MOM disabled.
  Guess Type is CORE.
  Energy threshold   = 1.00e-10
  Density threshold  = 1.00e-10
  Integral threshold = 0.00e+00

  ==> Primary Basis: STO-3G <==

  Basis Set
    Number of shells: 5
    Number of basis function: 7
    Number of Cartesian functions: 7
    Spherical Harmonics?: true
    Max angular momentum: 1

  ==> Pre-Iterations <==

  Minimum eigenvalue in the overlap matrix is 3.7080108292E-01.
  Using Symmetric Orthogonalization.
  SCF Guess: Core (One-Electron) Hamiltonian.

  Initial RHF energy:   -54.63652886810936

   -------------------------------------------------------
    Irrep   Nso     Nmo     Nalpha   Nbeta   Ndocc  Nsocc
   -------------------------------------------------------
     A1         4       4       3       3       3       0
     A2         0       0       0       0       0       0
     B1         1       1       1       1       1       0
     B2         2       2       1       1       1       0
   -------------------------------------------------------
    Total       7       7       5       5       5       0
   -------------------------------------------------------

  ==> Integral Setup <==

 MINTS: Wrapper to libmints.
   by Justin Turney

   Calculation information:
      Number of atoms:                   3
      Number of AO shells:               5
      Number of SO shells:               4
      Number of primitives:             15
      Number of atomic orbitals:         7
      Number of basis functions:         7

      Number of irreps:                  4
      Number of functions per irrep: [   4    0    1    2 ]

      Computing integrals...for (0 0 | 0 0) need to compute:
	lambda_T: 1
	istablizer: 4
	jstablizer: 4
	kstablizer: 4
	lstablizer: 4
	ijstablizer: 4
	klstablizer: 4
	R.size = 1
	0
	S.size = 1
	0
	T.size = 1
	0
	(0 0 | 0 0)
for (1 0 | 0 0) need to compute:
	lambda_T: 1
	istablizer: 4
	jstablizer: 4
	kstablizer: 4
	lstablizer: 4
	ijstablizer: 4
	klstablizer: 4
	R.size = 1
	0
	S.size = 1
	0
	T.size = 1
	0
	(1 0 | 0 0)
for (1 1 | 0 0) need to compute:
	lambda_T: 1
	istablizer: 4
	jstablizer: 4
	kstablizer: 4
	lstablizer: 4
	ijstablizer: 4
	klstablizer: 4
	R.size = 1
	0
	S.size = 1
	0
	T.size = 1
	0
	(1 1 | 0 0)
for (1 0 | 1 0) need to compute:
	lambda_T: 1
	istablizer: 4
	jstablizer: 4
	kstablizer: 4
	lstablizer: 4
	ijstablizer: 4
	klstablizer: 4
	R.size = 1
	0
	S.size = 1
	0
	T.size = 1
	0
	(1 0 | 1 0)
for (1 1 | 1 0) need to compute:
	lambda_T: 1
	istablizer: 4
	jstablizer: 4
	kstablizer: 4
	lstablizer: 4
	ijstablizer: 4
	klstablizer: 4
	R.size = 1
	0
	S.size = 1
	0
	T.size = 1
	0
	(1 1 | 1 0)
for (1 1 | 1 1) need to compute:
	lambda_T: 1
	istablizer: 4
	jstablizer: 4
	kstablizer: 4
	lstablizer: 4
	ijstablizer: 4
	klstablizer: 4
	R.size = 1
	0
	S.size = 1
	0
	T.size = 1
	0
	(1 1 | 1 1)
for (0 0 | 2 0) need to compute:
	lambda_T: 1
	istablizer: 4
	jstablizer: 4
	kstablizer: 4
	lstablizer: 4
	ijstablizer: 4
	klstablizer: 4
	R.size = 1
	0
	S.size = 1
	0
	T.size = 1
	0
for (0 0 | 2 1) need to compute:
	lambda_T: 1
	istablizer: 4
	jstablizer: 4
	kstablizer: 4
	lstablizer: 4
	ijstablizer: 4
	klstablizer: 4
	R.size = 1
	0
	S.size = 1
	0
	T.size = 1
	0
for (1 0 | 2 0) need to compute:
	lambda_T: 1
	istablizer: 4
	jstablizer: 4
	kstablizer: 4
	lstablizer: 4
	ijstablizer: 4
	klstablizer: 4
	R.size = 1
	0
	S.size = 1
	0
	T.size = 1
	0
for (1 0 | 2 1) need to compute:
	lambda_T: 1
	istablizer: 4
	jstablizer: 4
	kstablizer: 4
	lstablizer: 4
	ijstablizer: 4
	klstablizer: 4
	R.size = 1
	0
	S.size = 1
	0
	T.size = 1
	0
for (1 1 | 2 0) need to compute:
	lambda_T: 1
	istablizer: 4
	jstablizer: 4
	kstablizer: 4
	lstablizer: 4
	ijstablizer: 4
	klstablizer: 4
	R.size = 1
	0
	S.size = 1
	0
	T.size = 1
	0
for (1 1 | 2 1) need to compute:
	lambda_T: 1
	istablizer: 4
	jstablizer: 4
	kstablizer: 4
	lstablizer: 4
	ijstablizer: 4
	klstablizer: 4
	R.size = 1
	0
	S.size = 1
	0
	T.size = 1
	0
for (0 0 | 2 2) need to compute:
	lambda_T: 1
	istablizer: 4
	jstablizer: 4
	kstablizer: 4
	lstablizer: 4
	ijstablizer: 4
	klstablizer: 4
	R.size = 1
	0
	S.size = 1
	0
	T.size = 1
	0
	(0 0 | 2 2)
for (2 0 | 2 0) need to compute:
	lambda_T: 1
	istablizer: 4
	jstablizer: 4
	kstablizer: 4
	lstablizer: 4
	ijstablizer: 4
	klstablizer: 4
	R.size = 1
	0
	S.size = 1
	0
	T.size = 1
	0
	(2 0 | 2 0)
for (1 0 | 2 2) need to compute:
	lambda_T: 1
	istablizer: 4
	jstablizer: 4
	kstablizer: 4
	lstablizer: 4
	ijstablizer: 4
	klstablizer: 4
	R.size = 1
	0
	S.size = 1
	0
	T.size = 1
	0
	(1 0 | 2 2)
for (2 1 | 2 0) need to compute:
	lambda_T: 1
	istablizer: 4
	jstablizer: 4
	kstablizer: 4
	lstablizer: 4
	ijstablizer: 4
	klstablizer: 4
	R.size = 1
	0
	S.size = 1
	0
	T.size = 1
	0
	(2 1 | 2 0)
for (1 1 | 2 2) need to compute:
	lambda_T: 1
	istablizer: 4
	jstablizer: 4
	kstablizer: 4
	lstablizer: 4
	ijstablizer: 4
	klstablizer: 4
	R.size = 1
	0
	S.size = 1
	0
	T.size = 1
	0
	(1 1 | 2 2)
for (2 1 | 2 1) need to compute:
	lambda_T: 1
	istablizer: 4
	jstablizer: 4
	kstablizer: 4
	lstablizer: 4
	ijstablizer: 4
	klstablizer: 4
	R.size = 1
	0
	S.size = 1
	0
	T.size = 1
	0
	(2 1 | 2 1)
for (2 0 | 2 2) need to compute:
	lambda_T: 1
	istablizer: 4
	jstablizer: 4
	kstablizer: 4
	lstablizer: 4
	ijstablizer: 4
	klstablizer: 4
	R.size = 1
	0
	S.size = 1
	0
	T.size = 1
	0
for (2 1 | 2 2) need to compute:
	lambda_T: 1
	istablizer: 4
	jstablizer: 4
	kstablizer: 4
	lstablizer: 4
	ijstablizer: 4
	klstablizer: 4
	R.size = 1
	0
	S.size = 1
	0
	T.size = 1
	0
for (2 2 | 2 2) need to compute:
	lambda_T: 1
	istablizer: 4
	jstablizer: 4
	kstablizer: 4
	lstablizer: 4
	ijstablizer: 4
	klstablizer: 4
	R.size = 1
	0
	S.size = 1
	0
	T.size = 1
	0
	(2 2 | 2 2)
for (3 0 | 0 0) need to compute:
	lambda_T: 2
	istablizer: 3
	jstablizer: 4
	kstablizer: 4
	lstablizer: 4
	ijstablizer: 3
	klstablizer: 4
	R.size = 1
	0
	S.size = 1
	0
	T.size = 1
	0
	(3 0 | 0 0)
for (3 1 | 0 0) need to compute:
	lambda_T: 2
	istablizer: 3
	jstablizer: 4
	kstablizer: 4
	lstablizer: 4
	ijstablizer: 3
	klstablizer: 4
	R.size = 1
	0
	S.size = 1
	0
	T.size = 1
	0
	(3 1 | 0 0)
for (3 0 | 1 0) need to compute:
	lambda_T: 2
	istablizer: 3
	jstablizer: 4
	kstablizer: 4
	lstablizer: 4
	ijstablizer: 3
	klstablizer: 4
	R.size = 1
	0
	S.size = 1
	0
	T.size = 1
	0
	(3 0 | 1 0)
for (3 1 | 1 0) need to compute:
	lambda_T: 2
	istablizer: 3
	jstablizer: 4
	kstablizer: 4
	lstablizer: 4
	ijstablizer: 3
	klstablizer: 4
	R.size = 1
	0
	S.size = 1
	0
	T.size = 1
	0
	(3 1 | 1 0)
for (3 0 | 1 1) need to compute:
	lambda_T: 2
	istablizer: 3
	jstablizer: 4
	kstablizer: 4
	lstablizer: 4
	ijstablizer: 3
	klstablizer: 4
	R.size = 1
	0
	S.size = 1
	0
	T.size = 1
	0
	(3 0 | 1 1)
for (3 1 | 1 1) need to compute:
	lambda_T: 2
	istablizer: 3
	jstablizer: 4
	kstablizer: 4
	lstablizer: 4
	ijstablizer: 3
	klstablizer: 4
	R.size = 1
	0
	S.size = 1
	0
	T.size = 1
	0
	(3 1 | 1 1)
for (0 0 | 2 3) need to compute:
	lambda_T: 2
	istablizer: 4
	jstablizer: 4
	kstablizer: 4
	lstablizer: 3
	ijstablizer: 4
	klstablizer: 3
	R.size = 1
	0
	S.size = 1
	0
	T.size = 1
	0
	(0 0 | 2 3)
for (3 0 | 2 0) need to compute:
	lambda_T: 2
	istablizer: 3
	jstablizer: 4
	kstablizer: 4
	lstablizer: 4
	ijstablizer: 3
	klstablizer: 4
	R.size = 1
	0
	S.size = 1
	0
	T.size = 1
	0
	(3 0 | 2 0)
for (1 0 | 2 3) need to compute:
	lambda_T: 2
	istablizer: 4
	jstablizer: 4
	kstablizer: 4
	lstablizer: 3
	ijstablizer: 4
	klstablizer: 3
	R.size = 1
	0
	S.size = 1
	0
	T.size = 1
	0
	(1 0 | 2 3)
for (3 1 | 2 0) need to compute:
	lambda_T: 2
	istablizer: 3
	jstablizer: 4
	kstablizer: 4
	lstablizer: 4
	ijstablizer: 3
	klstablizer: 4
	R.size = 1
	0
	S.size = 1
	0
	T.size = 1
	0
	(3 1 | 2 0)
for (3 0 | 2 1) need to compute:
	lambda_T: 2
	istablizer: 3
	jstablizer: 4
	kstablizer: 4
	lstablizer: 4
	ijstablizer: 3
	klstablizer: 4
	R.size = 1
	0
	S.size = 1
	0
	T.size = 1
	0
	(3 0 | 2 1)
for (1 1 | 2 3) need to compute:
	lambda_T: 2
	istablizer: 4
	jstablizer: 4
	kstablizer: 4
	lstablizer: 3
	ijstablizer: 4
	klstablizer: 3
	R.size = 1
	0
	S.size = 1
	0
	T.size = 1
	0
	(1 1 | 2 3)
for (3 1 | 2 1) need to compute:
	lambda_T: 2
	istablizer: 3
	jstablizer: 4
	kstablizer: 4
	lstablizer: 4
	ijstablizer: 3
	klstablizer: 4
	R.size = 1
	0
	S.size = 1
	0
	T.size = 1
	0
	(3 1 | 2 1)
for (2 3 | 2 0) need to compute:
	lambda_T: 2
	istablizer: 4
	jstablizer: 3
	kstablizer: 4
	lstablizer: 4
	ijstablizer: 3
	klstablizer: 4
	R.size = 1
	0
	S.size = 1
	0
	T.size = 1
	0
	(2 3 | 2 0)
for (3 0 | 2 2) need to compute:
	lambda_T: 2
	istablizer: 3
	jstablizer: 4
	kstablizer: 4
	lstablizer: 4
	ijstablizer: 3
	klstablizer: 4
	R.size = 1
	0
	S.size = 1
	0
	T.size = 1
	0
	(3 0 | 2 2)
for (2 3 | 2 1) need to compute:
	lambda_T: 2
	istablizer: 4
	jstablizer: 3
	kstablizer: 4
	lstablizer: 4
	ijstablizer: 3
	klstablizer: 4
	R.size = 1
	0
	S.size = 1
	0
	T.size = 1
	0
	(2 3 | 2 1)
for (3 1 | 2 2) need to compute:
	lambda_T: 2
	istablizer: 3
	jstablizer: 4
	kstablizer: 4
	lstablizer: 4
	ijstablizer: 3
	klstablizer: 4
	R.size = 1
	0
	S.size = 1
	0
	T.size = 1
	0
	(3 1 | 2 2)
for (2 3 | 2 2) need to compute:
	lambda_T: 2
	istablizer: 4
	jstablizer: 3
	kstablizer: 4
	lstablizer: 4
	ijstablizer: 3
	klstablizer: 4
	R.size = 1
	0
	S.size = 1
	0
	T.size = 1
	0
	(2 3 | 2 2)
for (3 3 | 0 0) need to compute:
	lambda_T: 2
	istablizer: 3
	jstablizer: 3
	kstablizer: 4
	lstablizer: 4
	ijstablizer: 3
	klstablizer: 4
	R.size = 2
	0
	1
	S.size = 1
	0
	T.size = 1
	0
	(3 3 | 0 0)
	(3 4 | 0 0)
for (3 0 | 3 0) need to compute:
	lambda_T: 2
	istablizer: 3
	jstablizer: 4
	kstablizer: 3
	lstablizer: 4
	ijstablizer: 3
	klstablizer: 3
	R.size = 1
	0
	S.size = 1
	0
	T.size = 2
	0
	1
	(3 0 | 3 0)
	(3 0 | 4 0)
for (3 3 | 1 0) need to compute:
	lambda_T: 2
	istablizer: 3
	jstablizer: 3
	kstablizer: 4
	lstablizer: 4
	ijstablizer: 3
	klstablizer: 4
	R.size = 2
	0
	1
	S.size = 1
	0
	T.size = 1
	0
	(3 3 | 1 0)
	(3 4 | 1 0)
for (3 1 | 3 0) need to compute:
	lambda_T: 2
	istablizer: 3
	jstablizer: 4
	kstablizer: 3
	lstablizer: 4
	ijstablizer: 3
	klstablizer: 3
	R.size = 1
	0
	S.size = 1
	0
	T.size = 2
	0
	1
	(3 1 | 3 0)
	(3 1 | 4 0)
for (3 3 | 1 1) need to compute:
	lambda_T: 2
	istablizer: 3
	jstablizer: 3
	kstablizer: 4
	lstablizer: 4
	ijstablizer: 3
	klstablizer: 4
	R.size = 2
	0
	1
	S.size = 1
	0
	T.size = 1
	0
	(3 3 | 1 1)
	(3 4 | 1 1)
for (3 1 | 3 1) need to compute:
	lambda_T: 2
	istablizer: 3
	jstablizer: 4
	kstablizer: 3
	lstablizer: 4
	ijstablizer: 3
	klstablizer: 3
	R.size = 1
	0
	S.size = 1
	0
	T.size = 2
	0
	1
	(3 1 | 3 1)
	(3 1 | 4 1)
for (3 3 | 2 0) need to compute:
	lambda_T: 2
	istablizer: 3
	jstablizer: 3
	kstablizer: 4
	lstablizer: 4
	ijstablizer: 3
	klstablizer: 4
	R.size = 2
	0
	1
	S.size = 1
	0
	T.size = 1
	0
	(3 3 | 2 0)
	(3 4 | 2 0)
for (3 0 | 2 3) need to compute:
	lambda_T: 2
	istablizer: 3
	jstablizer: 4
	kstablizer: 4
	lstablizer: 3
	ijstablizer: 3
	klstablizer: 3
	R.size = 1
	0
	S.size = 1
	0
	T.size = 2
	0
	1
	(3 0 | 2 3)
	(3 0 | 2 4)
for (3 3 | 2 1) need to compute:
	lambda_T: 2
	istablizer: 3
	jstablizer: 3
	kstablizer: 4
	lstablizer: 4
	ijstablizer: 3
	klstablizer: 4
	R.size = 2
	0
	1
	S.size = 1
	0
	T.size = 1
	0
	(3 3 | 2 1)
	(3 4 | 2 1)
for (3 1 | 2 3) need to compute:
	lambda_T: 2
	istablizer: 3
	jstablizer: 4
	kstablizer: 4
	lstablizer: 3
	ijstablizer: 3
	klstablizer: 3
	R.size = 1
	0
	S.size = 1
	0
	T.size = 2
	0
	1
	(3 1 | 2 3)
	(3 1 | 2 4)
for (3 3 | 2 2) need to compute:
	lambda_T: 2
	istablizer: 3
	jstablizer: 3
	kstablizer: 4
	lstablizer: 4
	ijstablizer: 3
	klstablizer: 4
	R.size = 2
	0
	1
	S.size = 1
	0
	T.size = 1
	0
	(3 3 | 2 2)
	(3 4 | 2 2)
for (2 3 | 2 3) need to compute:
	lambda_T: 2
	istablizer: 4
	jstablizer: 3
	kstablizer: 4
	lstablizer: 3
	ijstablizer: 3
	klstablizer: 3
	R.size = 1
	0
	S.size = 1
	0
	T.size = 2
	0
	1
	(2 3 | 2 3)
	(2 3 | 2 4)
for (3 3 | 3 0) need to compute:
	lambda_T: 2
	istablizer: 3
	jstablizer: 3
	kstablizer: 3
	lstablizer: 4
	ijstablizer: 3
	klstablizer: 3
	R.size = 2
	0
	1
	S.size = 1
	0
	T.size = 2
	0
	1
	(3 3 | 3 0)
	(3 3 | 4 0)
	(3 4 | 3 0)
	(3 4 | 4 0)
for (3 3 | 3 1) need to compute:
	lambda_T: 2
	istablizer: 3
	jstablizer: 3
	kstablizer: 3
	lstablizer: 4
	ijstablizer: 3
	klstablizer: 3
	R.size = 2
	0
	1
	S.size = 1
	0
	T.size = 2
	0
	1
	(3 3 | 3 1)
	(3 3 | 4 1)
	(3 4 | 3 1)
	(3 4 | 4 1)
for (3 3 | 2 3) need to compute:
	lambda_T: 2
	istablizer: 3
	jstablizer: 3
	kstablizer: 4
	lstablizer: 3
	ijstablizer: 3
	klstablizer: 3
	R.size = 2
	0
	1
	S.size = 1
	0
	T.size = 2
	0
	1
	(3 3 | 2 3)
	(3 3 | 2 4)
	(3 4 | 2 3)
	(3 4 | 2 4)
for (3 3 | 3 3) need to compute:
	lambda_T: 2
	istablizer: 3
	jstablizer: 3
	kstablizer: 3
	lstablizer: 3
	ijstablizer: 3
	klstablizer: 3
	R.size = 2
	0
	1
	S.size = 2
	0
	1
	T.size = 2
	0
	1
	(3 3 | 3 3)
	(3 3 | 3 4)
	(3 3 | 4 4)
	(3 3 | 4 3)
	(3 4 | 3 3)
	(3 4 | 3 4)
	(3 4 | 4 4)
	(3 4 | 4 3)
done

      Computed 138 non-zero integrals.

  ==> Iterations <==

                        Total Energy        Delta E      Density RMS

   @RHF iter   1:   -73.25317044092078   -1.86166e+01    0.00000e+00 
   @RHF iter   2:   -74.93093382862781   -1.67776e+00    3.98385e-01 
   @RHF iter   3:   -74.96314904255331   -3.22152e-02    5.63046e-02 
   @RHF iter   4:   -74.96447454481236   -1.32550e-03    9.73554e-03 
   @RHF iter   5:   -74.96463012318104   -1.55578e-04    3.85117e-03 
   @RHF iter   6:   -74.96465824064133   -2.81175e-05    1.54351e-03 
   @RHF iter   7:   -74.96466372785473   -5.48721e-06    6.72995e-04 
   @RHF iter   8:   -74.96466481991015   -1.09206e-06    2.95835e-04 
   @RHF iter   9:   -74.96466503843268   -2.18523e-07    1.31384e-04 
   @RHF iter  10:   -74.96466508222878   -4.37961e-08    5.85630e-05 
   @RHF iter  11:   -74.96466509101046   -8.78168e-09    2.61621e-05 
   @RHF iter  12:   -74.96466509277154   -1.76108e-09    1.17004e-05 
   @RHF iter  13:   -74.96466509312468   -3.53140e-10    5.23596e-06 
   @RHF iter  14:   -74.96466509319548   -7.07985e-11    2.34387e-06 
   @RHF iter  15:   -74.96466509320970   -1.42251e-11    1.04942e-06 
   @RHF iter  16:   -74.96466509321255   -2.84217e-12    4.69901e-07 
   @RHF iter  17:   -74.96466509321313   -5.82645e-13    2.10420e-07 
   @RHF iter  18:   -74.96466509321324   -1.13687e-13    9.42282e-08 
   @RHF iter  19:   -74.96466509321323    1.42109e-14    4.21970e-08 
   @RHF iter  20:   -74.96466509321327   -4.26326e-14    1.88967e-08 
   @RHF iter  21:   -74.96466509321323    4.26326e-14    8.46237e-09 
   @RHF iter  22:   -74.96466509321328   -5.68434e-14    3.78965e-09 
   @RHF iter  23:   -74.96466509321327    1.42109e-14    1.69710e-09 
   @RHF iter  24:   -74.96466509321323    4.26326e-14    7.60006e-10 
   @RHF iter  25:   -74.96466509321323    0.00000e+00    3.40349e-10 
   @RHF iter  26:   -74.96466509321320    2.84217e-14    1.52416e-10 

  ==> Post-Iterations <==

	Orbital Energies (a.u.)
	-----------------------

	Doubly Occupied:                                                      

	   1A1   -20.247549     2A1    -1.247541     1B2    -0.595262  
	   3A1    -0.448073     1B1    -0.389015  

	Virtual:                                                              

	   4A1     0.563615     2B2     0.691764  

	Final Occupation by Irrep:
	         A1    A2    B1    B2 
	DOCC [     3,    0,    1,    1 ]

  Energy converged.

  @RHF Final Energy:   -74.96466509321320

  ==> Properties <==

 OEPROP: One-electron properties/analyses.
  by Rob Parrish and Justin Turney.
  built on LIBMINTS.

 Dipole Moment: (a.u.)
     X:     0.0000      Y:     0.0000      Z:     0.6565     Total:     0.6565

 Dipole Moment: (Debye)
     X:     0.0000      Y:     0.0000      Z:     1.6686     Total:     1.6686


  Saving occupied orbitals to File 100.

*** tstop() called on mac10147 at Tue Jun 14 09:57:11 2011
	user time   =       0.07 seconds =       0.00 minutes
	system time =       0.02 seconds =       0.00 minutes
	total time  =          0 seconds =       0.00 minutes

*** tstart() called on mac10147
*** at Tue Jun 14 09:57:11 2011

	There are an even number of electrons - assuming singlet.
	Specify the multiplicity with the MULTP option in the
	input if this is incorrect


         ---------------------------------------------------------
                                   SCF
            by Justin Turney, Rob Parrish, and Andy Simmonnett
                              RHF Reference
                        1 Threads,    256 MiB Core
         ---------------------------------------------------------

  ==> Geometry <==

    Molecular point group: c2v

    Geometry (in Angstrom), charge = 0, multiplicity = 1:

       Center              X                  Y                   Z       
    ------------   -----------------  -----------------  -----------------
           O          0.000000000000     0.000000000000    -0.068368138764
           H          0.000000000000     0.790689573744     0.542525987858
           H          0.000000000000    -0.790689573744     0.542525987858

    Number of unique atoms: 2

    Atoms equivalency:
       unique atom 0: 0 
       unique atom 1: 1 2 

  Running in c2v symmetry.

  Nuclear repulsion =    8.808325740540036

  Charge       = 0
  Multiplicity = 1
  Electrons    = 10
  Nalpha       = 5
  Nbeta        = 5

  ==> Algorithm <==

  SCF Algorithm Type is PK.
  DIIS disabled.
  MOM disabled.
  Guess Type is CORE.
  Energy threshold   = 1.00e-10
  Density threshold  = 1.00e-10
  Integral threshold = 0.00e+00

  ==> Primary Basis: STO-3G <==

  Basis Set
    Number of shells: 5
    Number of basis function: 7
    Number of Cartesian functions: 7
    Spherical Harmonics?: true
    Max angular momentum: 1

  ==> Pre-Iterations <==

  Minimum eigenvalue in the overlap matrix is 3.6976784588E-01.
  Using Symmetric Orthogonalization.
  SCF Guess: Core (One-Electron) Hamiltonian.

  Initial RHF energy:   -54.63199061564679

   -------------------------------------------------------
    Irrep   Nso     Nmo     Nalpha   Nbeta   Ndocc  Nsocc
   -------------------------------------------------------
     A1         4       4       3       3       3       0
     A2         0       0       0       0       0       0
     B1         1       1       1       1       1       0
     B2         2       2       1       1       1       0
   -------------------------------------------------------
    Total       7       7       5       5       5       0
   -------------------------------------------------------

  ==> Integral Setup <==

 MINTS: Wrapper to libmints.
   by Justin Turney

   Calculation information:
      Number of atoms:                   3
      Number of AO shells:               5
      Number of SO shells:               4
      Number of primitives:             15
      Number of atomic orbitals:         7
      Number of basis functions:         7

      Number of irreps:                  4
      Number of functions per irrep: [   4    0    1    2 ]

      Computing integrals...for (0 0 | 0 0) need to compute:
	lambda_T: 1
	istablizer: 4
	jstablizer: 4
	kstablizer: 4
	lstablizer: 4
	ijstablizer: 4
	klstablizer: 4
	R.size = 1
	0
	S.size = 1
	0
	T.size = 1
	0
	(0 0 | 0 0)
for (1 0 | 0 0) need to compute:
	lambda_T: 1
	istablizer: 4
	jstablizer: 4
	kstablizer: 4
	lstablizer: 4
	ijstablizer: 4
	klstablizer: 4
	R.size = 1
	0
	S.size = 1
	0
	T.size = 1
	0
	(1 0 | 0 0)
for (1 1 | 0 0) need to compute:
	lambda_T: 1
	istablizer: 4
	jstablizer: 4
	kstablizer: 4
	lstablizer: 4
	ijstablizer: 4
	klstablizer: 4
	R.size = 1
	0
	S.size = 1
	0
	T.size = 1
	0
	(1 1 | 0 0)
for (1 0 | 1 0) need to compute:
	lambda_T: 1
	istablizer: 4
	jstablizer: 4
	kstablizer: 4
	lstablizer: 4
	ijstablizer: 4
	klstablizer: 4
	R.size = 1
	0
	S.size = 1
	0
	T.size = 1
	0
	(1 0 | 1 0)
for (1 1 | 1 0) need to compute:
	lambda_T: 1
	istablizer: 4
	jstablizer: 4
	kstablizer: 4
	lstablizer: 4
	ijstablizer: 4
	klstablizer: 4
	R.size = 1
	0
	S.size = 1
	0
	T.size = 1
	0
	(1 1 | 1 0)
for (1 1 | 1 1) need to compute:
	lambda_T: 1
	istablizer: 4
	jstablizer: 4
	kstablizer: 4
	lstablizer: 4
	ijstablizer: 4
	klstablizer: 4
	R.size = 1
	0
	S.size = 1
	0
	T.size = 1
	0
	(1 1 | 1 1)
for (0 0 | 2 0) need to compute:
	lambda_T: 1
	istablizer: 4
	jstablizer: 4
	kstablizer: 4
	lstablizer: 4
	ijstablizer: 4
	klstablizer: 4
	R.size = 1
	0
	S.size = 1
	0
	T.size = 1
	0
for (0 0 | 2 1) need to compute:
	lambda_T: 1
	istablizer: 4
	jstablizer: 4
	kstablizer: 4
	lstablizer: 4
	ijstablizer: 4
	klstablizer: 4
	R.size = 1
	0
	S.size = 1
	0
	T.size = 1
	0
for (1 0 | 2 0) need to compute:
	lambda_T: 1
	istablizer: 4
	jstablizer: 4
	kstablizer: 4
	lstablizer: 4
	ijstablizer: 4
	klstablizer: 4
	R.size = 1
	0
	S.size = 1
	0
	T.size = 1
	0
for (1 0 | 2 1) need to compute:
	lambda_T: 1
	istablizer: 4
	jstablizer: 4
	kstablizer: 4
	lstablizer: 4
	ijstablizer: 4
	klstablizer: 4
	R.size = 1
	0
	S.size = 1
	0
	T.size = 1
	0
for (1 1 | 2 0) need to compute:
	lambda_T: 1
	istablizer: 4
	jstablizer: 4
	kstablizer: 4
	lstablizer: 4
	ijstablizer: 4
	klstablizer: 4
	R.size = 1
	0
	S.size = 1
	0
	T.size = 1
	0
for (1 1 | 2 1) need to compute:
	lambda_T: 1
	istablizer: 4
	jstablizer: 4
	kstablizer: 4
	lstablizer: 4
	ijstablizer: 4
	klstablizer: 4
	R.size = 1
	0
	S.size = 1
	0
	T.size = 1
	0
for (0 0 | 2 2) need to compute:
	lambda_T: 1
	istablizer: 4
	jstablizer: 4
	kstablizer: 4
	lstablizer: 4
	ijstablizer: 4
	klstablizer: 4
	R.size = 1
	0
	S.size = 1
	0
	T.size = 1
	0
	(0 0 | 2 2)
for (2 0 | 2 0) need to compute:
	lambda_T: 1
	istablizer: 4
	jstablizer: 4
	kstablizer: 4
	lstablizer: 4
	ijstablizer: 4
	klstablizer: 4
	R.size = 1
	0
	S.size = 1
	0
	T.size = 1
	0
	(2 0 | 2 0)
for (1 0 | 2 2) need to compute:
	lambda_T: 1
	istablizer: 4
	jstablizer: 4
	kstablizer: 4
	lstablizer: 4
	ijstablizer: 4
	klstablizer: 4
	R.size = 1
	0
	S.size = 1
	0
	T.size = 1
	0
	(1 0 | 2 2)
for (2 1 | 2 0) need to compute:
	lambda_T: 1
	istablizer: 4
	jstablizer: 4
	kstablizer: 4
	lstablizer: 4
	ijstablizer: 4
	klstablizer: 4
	R.size = 1
	0
	S.size = 1
	0
	T.size = 1
	0
	(2 1 | 2 0)
for (1 1 | 2 2) need to compute:
	lambda_T: 1
	istablizer: 4
	jstablizer: 4
	kstablizer: 4
	lstablizer: 4
	ijstablizer: 4
	klstablizer: 4
	R.size = 1
	0
	S.size = 1
	0
	T.size = 1
	0
	(1 1 | 2 2)
for (2 1 | 2 1) need to compute:
	lambda_T: 1
	istablizer: 4
	jstablizer: 4
	kstablizer: 4
	lstablizer: 4
	ijstablizer: 4
	klstablizer: 4
	R.size = 1
	0
	S.size = 1
	0
	T.size = 1
	0
	(2 1 | 2 1)
for (2 0 | 2 2) need to compute:
	lambda_T: 1
	istablizer: 4
	jstablizer: 4
	kstablizer: 4
	lstablizer: 4
	ijstablizer: 4
	klstablizer: 4
	R.size = 1
	0
	S.size = 1
	0
	T.size = 1
	0
for (2 1 | 2 2) need to compute:
	lambda_T: 1
	istablizer: 4
	jstablizer: 4
	kstablizer: 4
	lstablizer: 4
	ijstablizer: 4
	klstablizer: 4
	R.size = 1
	0
	S.size = 1
	0
	T.size = 1
	0
for (2 2 | 2 2) need to compute:
	lambda_T: 1
	istablizer: 4
	jstablizer: 4
	kstablizer: 4
	lstablizer: 4
	ijstablizer: 4
	klstablizer: 4
	R.size = 1
	0
	S.size = 1
	0
	T.size = 1
	0
	(2 2 | 2 2)
for (3 0 | 0 0) need to compute:
	lambda_T: 2
	istablizer: 3
	jstablizer: 4
	kstablizer: 4
	lstablizer: 4
	ijstablizer: 3
	klstablizer: 4
	R.size = 1
	0
	S.size = 1
	0
	T.size = 1
	0
	(3 0 | 0 0)
for (3 1 | 0 0) need to compute:
	lambda_T: 2
	istablizer: 3
	jstablizer: 4
	kstablizer: 4
	lstablizer: 4
	ijstablizer: 3
	klstablizer: 4
	R.size = 1
	0
	S.size = 1
	0
	T.size = 1
	0
	(3 1 | 0 0)
for (3 0 | 1 0) need to compute:
	lambda_T: 2
	istablizer: 3
	jstablizer: 4
	kstablizer: 4
	lstablizer: 4
	ijstablizer: 3
	klstablizer: 4
	R.size = 1
	0
	S.size = 1
	0
	T.size = 1
	0
	(3 0 | 1 0)
for (3 1 | 1 0) need to compute:
	lambda_T: 2
	istablizer: 3
	jstablizer: 4
	kstablizer: 4
	lstablizer: 4
	ijstablizer: 3
	klstablizer: 4
	R.size = 1
	0
	S.size = 1
	0
	T.size = 1
	0
	(3 1 | 1 0)
for (3 0 | 1 1) need to compute:
	lambda_T: 2
	istablizer: 3
	jstablizer: 4
	kstablizer: 4
	lstablizer: 4
	ijstablizer: 3
	klstablizer: 4
	R.size = 1
	0
	S.size = 1
	0
	T.size = 1
	0
	(3 0 | 1 1)
for (3 1 | 1 1) need to compute:
	lambda_T: 2
	istablizer: 3
	jstablizer: 4
	kstablizer: 4
	lstablizer: 4
	ijstablizer: 3
	klstablizer: 4
	R.size = 1
	0
	S.size = 1
	0
	T.size = 1
	0
	(3 1 | 1 1)
for (0 0 | 2 3) need to compute:
	lambda_T: 2
	istablizer: 4
	jstablizer: 4
	kstablizer: 4
	lstablizer: 3
	ijstablizer: 4
	klstablizer: 3
	R.size = 1
	0
	S.size = 1
	0
	T.size = 1
	0
	(0 0 | 2 3)
for (3 0 | 2 0) need to compute:
	lambda_T: 2
	istablizer: 3
	jstablizer: 4
	kstablizer: 4
	lstablizer: 4
	ijstablizer: 3
	klstablizer: 4
	R.size = 1
	0
	S.size = 1
	0
	T.size = 1
	0
	(3 0 | 2 0)
for (1 0 | 2 3) need to compute:
	lambda_T: 2
	istablizer: 4
	jstablizer: 4
	kstablizer: 4
	lstablizer: 3
	ijstablizer: 4
	klstablizer: 3
	R.size = 1
	0
	S.size = 1
	0
	T.size = 1
	0
	(1 0 | 2 3)
for (3 1 | 2 0) need to compute:
	lambda_T: 2
	istablizer: 3
	jstablizer: 4
	kstablizer: 4
	lstablizer: 4
	ijstablizer: 3
	klstablizer: 4
	R.size = 1
	0
	S.size = 1
	0
	T.size = 1
	0
	(3 1 | 2 0)
for (3 0 | 2 1) need to compute:
	lambda_T: 2
	istablizer: 3
	jstablizer: 4
	kstablizer: 4
	lstablizer: 4
	ijstablizer: 3
	klstablizer: 4
	R.size = 1
	0
	S.size = 1
	0
	T.size = 1
	0
	(3 0 | 2 1)
for (1 1 | 2 3) need to compute:
	lambda_T: 2
	istablizer: 4
	jstablizer: 4
	kstablizer: 4
	lstablizer: 3
	ijstablizer: 4
	klstablizer: 3
	R.size = 1
	0
	S.size = 1
	0
	T.size = 1
	0
	(1 1 | 2 3)
for (3 1 | 2 1) need to compute:
	lambda_T: 2
	istablizer: 3
	jstablizer: 4
	kstablizer: 4
	lstablizer: 4
	ijstablizer: 3
	klstablizer: 4
	R.size = 1
	0
	S.size = 1
	0
	T.size = 1
	0
	(3 1 | 2 1)
for (2 3 | 2 0) need to compute:
	lambda_T: 2
	istablizer: 4
	jstablizer: 3
	kstablizer: 4
	lstablizer: 4
	ijstablizer: 3
	klstablizer: 4
	R.size = 1
	0
	S.size = 1
	0
	T.size = 1
	0
	(2 3 | 2 0)
for (3 0 | 2 2) need to compute:
	lambda_T: 2
	istablizer: 3
	jstablizer: 4
	kstablizer: 4
	lstablizer: 4
	ijstablizer: 3
	klstablizer: 4
	R.size = 1
	0
	S.size = 1
	0
	T.size = 1
	0
	(3 0 | 2 2)
for (2 3 | 2 1) need to compute:
	lambda_T: 2
	istablizer: 4
	jstablizer: 3
	kstablizer: 4
	lstablizer: 4
	ijstablizer: 3
	klstablizer: 4
	R.size = 1
	0
	S.size = 1
	0
	T.size = 1
	0
	(2 3 | 2 1)
for (3 1 | 2 2) need to compute:
	lambda_T: 2
	istablizer: 3
	jstablizer: 4
	kstablizer: 4
	lstablizer: 4
	ijstablizer: 3
	klstablizer: 4
	R.size = 1
	0
	S.size = 1
	0
	T.size = 1
	0
	(3 1 | 2 2)
for (2 3 | 2 2) need to compute:
	lambda_T: 2
	istablizer: 4
	jstablizer: 3
	kstablizer: 4
	lstablizer: 4
	ijstablizer: 3
	klstablizer: 4
	R.size = 1
	0
	S.size = 1
	0
	T.size = 1
	0
	(2 3 | 2 2)
for (3 3 | 0 0) need to compute:
	lambda_T: 2
	istablizer: 3
	jstablizer: 3
	kstablizer: 4
	lstablizer: 4
	ijstablizer: 3
	klstablizer: 4
	R.size = 2
	0
	1
	S.size = 1
	0
	T.size = 1
	0
	(3 3 | 0 0)
	(3 4 | 0 0)
for (3 0 | 3 0) need to compute:
	lambda_T: 2
	istablizer: 3
	jstablizer: 4
	kstablizer: 3
	lstablizer: 4
	ijstablizer: 3
	klstablizer: 3
	R.size = 1
	0
	S.size = 1
	0
	T.size = 2
	0
	1
	(3 0 | 3 0)
	(3 0 | 4 0)
for (3 3 | 1 0) need to compute:
	lambda_T: 2
	istablizer: 3
	jstablizer: 3
	kstablizer: 4
	lstablizer: 4
	ijstablizer: 3
	klstablizer: 4
	R.size = 2
	0
	1
	S.size = 1
	0
	T.size = 1
	0
	(3 3 | 1 0)
	(3 4 | 1 0)
for (3 1 | 3 0) need to compute:
	lambda_T: 2
	istablizer: 3
	jstablizer: 4
	kstablizer: 3
	lstablizer: 4
	ijstablizer: 3
	klstablizer: 3
	R.size = 1
	0
	S.size = 1
	0
	T.size = 2
	0
	1
	(3 1 | 3 0)
	(3 1 | 4 0)
for (3 3 | 1 1) need to compute:
	lambda_T: 2
	istablizer: 3
	jstablizer: 3
	kstablizer: 4
	lstablizer: 4
	ijstablizer: 3
	klstablizer: 4
	R.size = 2
	0
	1
	S.size = 1
	0
	T.size = 1
	0
	(3 3 | 1 1)
	(3 4 | 1 1)
for (3 1 | 3 1) need to compute:
	lambda_T: 2
	istablizer: 3
	jstablizer: 4
	kstablizer: 3
	lstablizer: 4
	ijstablizer: 3
	klstablizer: 3
	R.size = 1
	0
	S.size = 1
	0
	T.size = 2
	0
	1
	(3 1 | 3 1)
	(3 1 | 4 1)
for (3 3 | 2 0) need to compute:
	lambda_T: 2
	istablizer: 3
	jstablizer: 3
	kstablizer: 4
	lstablizer: 4
	ijstablizer: 3
	klstablizer: 4
	R.size = 2
	0
	1
	S.size = 1
	0
	T.size = 1
	0
	(3 3 | 2 0)
	(3 4 | 2 0)
for (3 0 | 2 3) need to compute:
	lambda_T: 2
	istablizer: 3
	jstablizer: 4
	kstablizer: 4
	lstablizer: 3
	ijstablizer: 3
	klstablizer: 3
	R.size = 1
	0
	S.size = 1
	0
	T.size = 2
	0
	1
	(3 0 | 2 3)
	(3 0 | 2 4)
for (3 3 | 2 1) need to compute:
	lambda_T: 2
	istablizer: 3
	jstablizer: 3
	kstablizer: 4
	lstablizer: 4
	ijstablizer: 3
	klstablizer: 4
	R.size = 2
	0
	1
	S.size = 1
	0
	T.size = 1
	0
	(3 3 | 2 1)
	(3 4 | 2 1)
for (3 1 | 2 3) need to compute:
	lambda_T: 2
	istablizer: 3
	jstablizer: 4
	kstablizer: 4
	lstablizer: 3
	ijstablizer: 3
	klstablizer: 3
	R.size = 1
	0
	S.size = 1
	0
	T.size = 2
	0
	1
	(3 1 | 2 3)
	(3 1 | 2 4)
for (3 3 | 2 2) need to compute:
	lambda_T: 2
	istablizer: 3
	jstablizer: 3
	kstablizer: 4
	lstablizer: 4
	ijstablizer: 3
	klstablizer: 4
	R.size = 2
	0
	1
	S.size = 1
	0
	T.size = 1
	0
	(3 3 | 2 2)
	(3 4 | 2 2)
for (2 3 | 2 3) need to compute:
	lambda_T: 2
	istablizer: 4
	jstablizer: 3
	kstablizer: 4
	lstablizer: 3
	ijstablizer: 3
	klstablizer: 3
	R.size = 1
	0
	S.size = 1
	0
	T.size = 2
	0
	1
	(2 3 | 2 3)
	(2 3 | 2 4)
for (3 3 | 3 0) need to compute:
	lambda_T: 2
	istablizer: 3
	jstablizer: 3
	kstablizer: 3
	lstablizer: 4
	ijstablizer: 3
	klstablizer: 3
	R.size = 2
	0
	1
	S.size = 1
	0
	T.size = 2
	0
	1
	(3 3 | 3 0)
	(3 3 | 4 0)
	(3 4 | 3 0)
	(3 4 | 4 0)
for (3 3 | 3 1) need to compute:
	lambda_T: 2
	istablizer: 3
	jstablizer: 3
	kstablizer: 3
	lstablizer: 4
	ijstablizer: 3
	klstablizer: 3
	R.size = 2
	0
	1
	S.size = 1
	0
	T.size = 2
	0
	1
	(3 3 | 3 1)
	(3 3 | 4 1)
	(3 4 | 3 1)
	(3 4 | 4 1)
for (3 3 | 2 3) need to compute:
	lambda_T: 2
	istablizer: 3
	jstablizer: 3
	kstablizer: 4
	lstablizer: 3
	ijstablizer: 3
	klstablizer: 3
	R.size = 2
	0
	1
	S.size = 1
	0
	T.size = 2
	0
	1
	(3 3 | 2 3)
	(3 3 | 2 4)
	(3 4 | 2 3)
	(3 4 | 2 4)
for (3 3 | 3 3) need to compute:
	lambda_T: 2
	istablizer: 3
	jstablizer: 3
	kstablizer: 3
	lstablizer: 3
	ijstablizer: 3
	klstablizer: 3
	R.size = 2
	0
	1
	S.size = 2
	0
	1
	T.size = 2
	0
	1
	(3 3 | 3 3)
	(3 3 | 3 4)
	(3 3 | 4 4)
	(3 3 | 4 3)
	(3 4 | 3 3)
	(3 4 | 3 4)
	(3 4 | 4 4)
	(3 4 | 4 3)
done

      Computed 138 non-zero integrals.

  ==> Iterations <==

                        Total Energy        Delta E      Density RMS

   @RHF iter   1:   -73.25285160277389   -1.86209e+01    0.00000e+00 
   @RHF iter   2:   -74.93204882909679   -1.67920e+00    3.98374e-01 
   @RHF iter   3:   -74.96318240565043   -3.11336e-02    5.53443e-02 
   @RHF iter   4:   -74.96446911500962   -1.28671e-03    9.63827e-03 
   @RHF iter   5:   -74.96462198798540   -1.52873e-04    3.82019e-03 
   @RHF iter   6:   -74.96464962816277   -2.76402e-05    1.53397e-03 
   @RHF iter   7:   -74.96465501302436   -5.38486e-06    6.68057e-04 
   @RHF iter   8:   -74.96465608254516   -1.06952e-06    2.93430e-04 
   @RHF iter   9:   -74.96465629611659   -2.13571e-07    1.30183e-04 
   @RHF iter  10:   -74.96465633883167   -4.27151e-08    5.79689e-05 
   @RHF iter  11:   -74.96465634737882   -8.54715e-09    2.58699e-05 
   @RHF iter  12:   -74.96465634908930   -1.71048e-09    1.15578e-05 
   @RHF iter  13:   -74.96465634943162   -3.42325e-10    5.16677e-06 
   @RHF iter  14:   -74.96465634950009   -6.84679e-11    2.31050e-06 
   @RHF iter  15:   -74.96465634951383   -1.37419e-11    1.03341e-06 
   @RHF iter  16:   -74.96465634951663   -2.79954e-12    4.62251e-07 
   @RHF iter  17:   -74.96465634951716   -5.25802e-13    2.06780e-07 
   @RHF iter  18:   -74.96465634951726   -9.94760e-14    9.25021e-08 
   @RHF iter  19:   -74.96465634951730   -4.26326e-14    4.13811e-08 
   @RHF iter  20:   -74.96465634951726    4.26326e-14    1.85121e-08 
   @RHF iter  21:   -74.96465634951731   -5.68434e-14    8.28156e-09 
   @RHF iter  22:   -74.96465634951731    0.00000e+00    3.70484e-09 
   @RHF iter  23:   -74.96465634951726    5.68434e-14    1.65740e-09 
   @RHF iter  24:   -74.96465634951730   -4.26326e-14    7.41458e-10 
   @RHF iter  25:   -74.96465634951728    1.42109e-14    3.31701e-10 
   @RHF iter  26:   -74.96465634951726    2.84217e-14    1.48389e-10 

  ==> Post-Iterations <==

	Orbital Energies (a.u.)
	-----------------------

	Doubly Occupied:                                                      

	   1A1   -20.246991     2A1    -1.248007     1B2    -0.596440  
	   3A1    -0.447695     1B1    -0.388898  

	Virtual:                                                              

	   4A1     0.564689     2B2     0.694252  

	Final Occupation by Irrep:
	         A1    A2    B1    B2 
	DOCC [     3,    0,    1,    1 ]

  Energy converged.

  @RHF Final Energy:   -74.96465634951726

  ==> Properties <==

 OEPROP: One-electron properties/analyses.
  by Rob Parrish and Justin Turney.
  built on LIBMINTS.

 Dipole Moment: (a.u.)
     X:     0.0000      Y:     0.0000      Z:     0.6568     Total:     0.6568

 Dipole Moment: (Debye)
     X:     0.0000      Y:     0.0000      Z:     1.6694     Total:     1.6694


  Saving occupied orbitals to File 100.

*** tstop() called on mac10147 at Tue Jun 14 09:57:11 2011
	user time   =       0.11 seconds =       0.00 minutes
	system time =       0.03 seconds =       0.00 minutes
	total time  =          0 seconds =       0.00 minutes

*** tstart() called on mac10147
*** at Tue Jun 14 09:57:11 2011

	There are an even number of electrons - assuming singlet.
	Specify the multiplicity with the MULTP option in the
	input if this is incorrect


         ---------------------------------------------------------
                                   SCF
            by Justin Turney, Rob Parrish, and Andy Simmonnett
                              RHF Reference
                        1 Threads,    256 MiB Core
         ---------------------------------------------------------

  ==> Geometry <==

    Molecular point group: c2v

    Geometry (in Angstrom), charge = 0, multiplicity = 1:

       Center              X                  Y                   Z       
    ------------   -----------------  -----------------  -----------------
           O          0.000000000000     0.000000000000    -0.068516219310
           H          0.000000000000     0.786962280210     0.543701060724
           H          0.000000000000    -0.786962280210     0.543701060724

    Number of unique atoms: 2

    Atoms equivalency:
       unique atom 0: 0 
       unique atom 1: 1 2 

  Running in c2v symmetry.

  Nuclear repulsion =    8.828055514235817

  Charge       = 0
  Multiplicity = 1
  Electrons    = 10
  Nalpha       = 5
  Nbeta        = 5

  ==> Algorithm <==

  SCF Algorithm Type is PK.
  DIIS disabled.
  MOM disabled.
  Guess Type is CORE.
  Energy threshold   = 1.00e-10
  Density threshold  = 1.00e-10
  Integral threshold = 0.00e+00

  ==> Primary Basis: STO-3G <==

  Basis Set
    Number of shells: 5
    Number of basis function: 7
    Number of Cartesian functions: 7
    Spherical Harmonics?: true
    Max angular momentum: 1

  ==> Pre-Iterations <==

  Minimum eigenvalue in the overlap matrix is 3.6833536103E-01.
  Using Symmetric Orthogonalization.
  SCF Guess: Core (One-Electron) Hamiltonian.

  Initial RHF energy:   -54.62399578631825

   -------------------------------------------------------
    Irrep   Nso     Nmo     Nalpha   Nbeta   Ndocc  Nsocc
   -------------------------------------------------------
     A1         4       4       3       3       3       0
     A2         0       0       0       0       0       0
     B1         1       1       1       1       1       0
     B2         2       2       1       1       1       0
   -------------------------------------------------------
    Total       7       7       5       5       5       0
   -------------------------------------------------------

  ==> Integral Setup <==

 MINTS: Wrapper to libmints.
   by Justin Turney

   Calculation information:
      Number of atoms:                   3
      Number of AO shells:               5
      Number of SO shells:               4
      Number of primitives:             15
      Number of atomic orbitals:         7
      Number of basis functions:         7

      Number of irreps:                  4
      Number of functions per irrep: [   4    0    1    2 ]

      Computing integrals...for (0 0 | 0 0) need to compute:
	lambda_T: 1
	istablizer: 4
	jstablizer: 4
	kstablizer: 4
	lstablizer: 4
	ijstablizer: 4
	klstablizer: 4
	R.size = 1
	0
	S.size = 1
	0
	T.size = 1
	0
	(0 0 | 0 0)
for (1 0 | 0 0) need to compute:
	lambda_T: 1
	istablizer: 4
	jstablizer: 4
	kstablizer: 4
	lstablizer: 4
	ijstablizer: 4
	klstablizer: 4
	R.size = 1
	0
	S.size = 1
	0
	T.size = 1
	0
	(1 0 | 0 0)
for (1 1 | 0 0) need to compute:
	lambda_T: 1
	istablizer: 4
	jstablizer: 4
	kstablizer: 4
	lstablizer: 4
	ijstablizer: 4
	klstablizer: 4
	R.size = 1
	0
	S.size = 1
	0
	T.size = 1
	0
	(1 1 | 0 0)
for (1 0 | 1 0) need to compute:
	lambda_T: 1
	istablizer: 4
	jstablizer: 4
	kstablizer: 4
	lstablizer: 4
	ijstablizer: 4
	klstablizer: 4
	R.size = 1
	0
	S.size = 1
	0
	T.size = 1
	0
	(1 0 | 1 0)
for (1 1 | 1 0) need to compute:
	lambda_T: 1
	istablizer: 4
	jstablizer: 4
	kstablizer: 4
	lstablizer: 4
	ijstablizer: 4
	klstablizer: 4
	R.size = 1
	0
	S.size = 1
	0
	T.size = 1
	0
	(1 1 | 1 0)
for (1 1 | 1 1) need to compute:
	lambda_T: 1
	istablizer: 4
	jstablizer: 4
	kstablizer: 4
	lstablizer: 4
	ijstablizer: 4
	klstablizer: 4
	R.size = 1
	0
	S.size = 1
	0
	T.size = 1
	0
	(1 1 | 1 1)
for (0 0 | 2 0) need to compute:
	lambda_T: 1
	istablizer: 4
	jstablizer: 4
	kstablizer: 4
	lstablizer: 4
	ijstablizer: 4
	klstablizer: 4
	R.size = 1
	0
	S.size = 1
	0
	T.size = 1
	0
for (0 0 | 2 1) need to compute:
	lambda_T: 1
	istablizer: 4
	jstablizer: 4
	kstablizer: 4
	lstablizer: 4
	ijstablizer: 4
	klstablizer: 4
	R.size = 1
	0
	S.size = 1
	0
	T.size = 1
	0
for (1 0 | 2 0) need to compute:
	lambda_T: 1
	istablizer: 4
	jstablizer: 4
	kstablizer: 4
	lstablizer: 4
	ijstablizer: 4
	klstablizer: 4
	R.size = 1
	0
	S.size = 1
	0
	T.size = 1
	0
for (1 0 | 2 1) need to compute:
	lambda_T: 1
	istablizer: 4
	jstablizer: 4
	kstablizer: 4
	lstablizer: 4
	ijstablizer: 4
	klstablizer: 4
	R.size = 1
	0
	S.size = 1
	0
	T.size = 1
	0
for (1 1 | 2 0) need to compute:
	lambda_T: 1
	istablizer: 4
	jstablizer: 4
	kstablizer: 4
	lstablizer: 4
	ijstablizer: 4
	klstablizer: 4
	R.size = 1
	0
	S.size = 1
	0
	T.size = 1
	0
for (1 1 | 2 1) need to compute:
	lambda_T: 1
	istablizer: 4
	jstablizer: 4
	kstablizer: 4
	lstablizer: 4
	ijstablizer: 4
	klstablizer: 4
	R.size = 1
	0
	S.size = 1
	0
	T.size = 1
	0
for (0 0 | 2 2) need to compute:
	lambda_T: 1
	istablizer: 4
	jstablizer: 4
	kstablizer: 4
	lstablizer: 4
	ijstablizer: 4
	klstablizer: 4
	R.size = 1
	0
	S.size = 1
	0
	T.size = 1
	0
	(0 0 | 2 2)
for (2 0 | 2 0) need to compute:
	lambda_T: 1
	istablizer: 4
	jstablizer: 4
	kstablizer: 4
	lstablizer: 4
	ijstablizer: 4
	klstablizer: 4
	R.size = 1
	0
	S.size = 1
	0
	T.size = 1
	0
	(2 0 | 2 0)
for (1 0 | 2 2) need to compute:
	lambda_T: 1
	istablizer: 4
	jstablizer: 4
	kstablizer: 4
	lstablizer: 4
	ijstablizer: 4
	klstablizer: 4
	R.size = 1
	0
	S.size = 1
	0
	T.size = 1
	0
	(1 0 | 2 2)
for (2 1 | 2 0) need to compute:
	lambda_T: 1
	istablizer: 4
	jstablizer: 4
	kstablizer: 4
	lstablizer: 4
	ijstablizer: 4
	klstablizer: 4
	R.size = 1
	0
	S.size = 1
	0
	T.size = 1
	0
	(2 1 | 2 0)
for (1 1 | 2 2) need to compute:
	lambda_T: 1
	istablizer: 4
	jstablizer: 4
	kstablizer: 4
	lstablizer: 4
	ijstablizer: 4
	klstablizer: 4
	R.size = 1
	0
	S.size = 1
	0
	T.size = 1
	0
	(1 1 | 2 2)
for (2 1 | 2 1) need to compute:
	lambda_T: 1
	istablizer: 4
	jstablizer: 4
	kstablizer: 4
	lstablizer: 4
	ijstablizer: 4
	klstablizer: 4
	R.size = 1
	0
	S.size = 1
	0
	T.size = 1
	0
	(2 1 | 2 1)
for (2 0 | 2 2) need to compute:
	lambda_T: 1
	istablizer: 4
	jstablizer: 4
	kstablizer: 4
	lstablizer: 4
	ijstablizer: 4
	klstablizer: 4
	R.size = 1
	0
	S.size = 1
	0
	T.size = 1
	0
for (2 1 | 2 2) need to compute:
	lambda_T: 1
	istablizer: 4
	jstablizer: 4
	kstablizer: 4
	lstablizer: 4
	ijstablizer: 4
	klstablizer: 4
	R.size = 1
	0
	S.size = 1
	0
	T.size = 1
	0
for (2 2 | 2 2) need to compute:
	lambda_T: 1
	istablizer: 4
	jstablizer: 4
	kstablizer: 4
	lstablizer: 4
	ijstablizer: 4
	klstablizer: 4
	R.size = 1
	0
	S.size = 1
	0
	T.size = 1
	0
	(2 2 | 2 2)
for (3 0 | 0 0) need to compute:
	lambda_T: 2
	istablizer: 3
	jstablizer: 4
	kstablizer: 4
	lstablizer: 4
	ijstablizer: 3
	klstablizer: 4
	R.size = 1
	0
	S.size = 1
	0
	T.size = 1
	0
	(3 0 | 0 0)
for (3 1 | 0 0) need to compute:
	lambda_T: 2
	istablizer: 3
	jstablizer: 4
	kstablizer: 4
	lstablizer: 4
	ijstablizer: 3
	klstablizer: 4
	R.size = 1
	0
	S.size = 1
	0
	T.size = 1
	0
	(3 1 | 0 0)
for (3 0 | 1 0) need to compute:
	lambda_T: 2
	istablizer: 3
	jstablizer: 4
	kstablizer: 4
	lstablizer: 4
	ijstablizer: 3
	klstablizer: 4
	R.size = 1
	0
	S.size = 1
	0
	T.size = 1
	0
	(3 0 | 1 0)
for (3 1 | 1 0) need to compute:
	lambda_T: 2
	istablizer: 3
	jstablizer: 4
	kstablizer: 4
	lstablizer: 4
	ijstablizer: 3
	klstablizer: 4
	R.size = 1
	0
	S.size = 1
	0
	T.size = 1
	0
	(3 1 | 1 0)
for (3 0 | 1 1) need to compute:
	lambda_T: 2
	istablizer: 3
	jstablizer: 4
	kstablizer: 4
	lstablizer: 4
	ijstablizer: 3
	klstablizer: 4
	R.size = 1
	0
	S.size = 1
	0
	T.size = 1
	0
	(3 0 | 1 1)
for (3 1 | 1 1) need to compute:
	lambda_T: 2
	istablizer: 3
	jstablizer: 4
	kstablizer: 4
	lstablizer: 4
	ijstablizer: 3
	klstablizer: 4
	R.size = 1
	0
	S.size = 1
	0
	T.size = 1
	0
	(3 1 | 1 1)
for (0 0 | 2 3) need to compute:
	lambda_T: 2
	istablizer: 4
	jstablizer: 4
	kstablizer: 4
	lstablizer: 3
	ijstablizer: 4
	klstablizer: 3
	R.size = 1
	0
	S.size = 1
	0
	T.size = 1
	0
	(0 0 | 2 3)
for (3 0 | 2 0) need to compute:
	lambda_T: 2
	istablizer: 3
	jstablizer: 4
	kstablizer: 4
	lstablizer: 4
	ijstablizer: 3
	klstablizer: 4
	R.size = 1
	0
	S.size = 1
	0
	T.size = 1
	0
	(3 0 | 2 0)
for (1 0 | 2 3) need to compute:
	lambda_T: 2
	istablizer: 4
	jstablizer: 4
	kstablizer: 4
	lstablizer: 3
	ijstablizer: 4
	klstablizer: 3
	R.size = 1
	0
	S.size = 1
	0
	T.size = 1
	0
	(1 0 | 2 3)
for (3 1 | 2 0) need to compute:
	lambda_T: 2
	istablizer: 3
	jstablizer: 4
	kstablizer: 4
	lstablizer: 4
	ijstablizer: 3
	klstablizer: 4
	R.size = 1
	0
	S.size = 1
	0
	T.size = 1
	0
	(3 1 | 2 0)
for (3 0 | 2 1) need to compute:
	lambda_T: 2
	istablizer: 3
	jstablizer: 4
	kstablizer: 4
	lstablizer: 4
	ijstablizer: 3
	klstablizer: 4
	R.size = 1
	0
	S.size = 1
	0
	T.size = 1
	0
	(3 0 | 2 1)
for (1 1 | 2 3) need to compute:
	lambda_T: 2
	istablizer: 4
	jstablizer: 4
	kstablizer: 4
	lstablizer: 3
	ijstablizer: 4
	klstablizer: 3
	R.size = 1
	0
	S.size = 1
	0
	T.size = 1
	0
	(1 1 | 2 3)
for (3 1 | 2 1) need to compute:
	lambda_T: 2
	istablizer: 3
	jstablizer: 4
	kstablizer: 4
	lstablizer: 4
	ijstablizer: 3
	klstablizer: 4
	R.size = 1
	0
	S.size = 1
	0
	T.size = 1
	0
	(3 1 | 2 1)
for (2 3 | 2 0) need to compute:
	lambda_T: 2
	istablizer: 4
	jstablizer: 3
	kstablizer: 4
	lstablizer: 4
	ijstablizer: 3
	klstablizer: 4
	R.size = 1
	0
	S.size = 1
	0
	T.size = 1
	0
	(2 3 | 2 0)
for (3 0 | 2 2) need to compute:
	lambda_T: 2
	istablizer: 3
	jstablizer: 4
	kstablizer: 4
	lstablizer: 4
	ijstablizer: 3
	klstablizer: 4
	R.size = 1
	0
	S.size = 1
	0
	T.size = 1
	0
	(3 0 | 2 2)
for (2 3 | 2 1) need to compute:
	lambda_T: 2
	istablizer: 4
	jstablizer: 3
	kstablizer: 4
	lstablizer: 4
	ijstablizer: 3
	klstablizer: 4
	R.size = 1
	0
	S.size = 1
	0
	T.size = 1
	0
	(2 3 | 2 1)
for (3 1 | 2 2) need to compute:
	lambda_T: 2
	istablizer: 3
	jstablizer: 4
	kstablizer: 4
	lstablizer: 4
	ijstablizer: 3
	klstablizer: 4
	R.size = 1
	0
	S.size = 1
	0
	T.size = 1
	0
	(3 1 | 2 2)
for (2 3 | 2 2) need to compute:
	lambda_T: 2
	istablizer: 4
	jstablizer: 3
	kstablizer: 4
	lstablizer: 4
	ijstablizer: 3
	klstablizer: 4
	R.size = 1
	0
	S.size = 1
	0
	T.size = 1
	0
	(2 3 | 2 2)
for (3 3 | 0 0) need to compute:
	lambda_T: 2
	istablizer: 3
	jstablizer: 3
	kstablizer: 4
	lstablizer: 4
	ijstablizer: 3
	klstablizer: 4
	R.size = 2
	0
	1
	S.size = 1
	0
	T.size = 1
	0
	(3 3 | 0 0)
	(3 4 | 0 0)
for (3 0 | 3 0) need to compute:
	lambda_T: 2
	istablizer: 3
	jstablizer: 4
	kstablizer: 3
	lstablizer: 4
	ijstablizer: 3
	klstablizer: 3
	R.size = 1
	0
	S.size = 1
	0
	T.size = 2
	0
	1
	(3 0 | 3 0)
	(3 0 | 4 0)
for (3 3 | 1 0) need to compute:
	lambda_T: 2
	istablizer: 3
	jstablizer: 3
	kstablizer: 4
	lstablizer: 4
	ijstablizer: 3
	klstablizer: 4
	R.size = 2
	0
	1
	S.size = 1
	0
	T.size = 1
	0
	(3 3 | 1 0)
	(3 4 | 1 0)
for (3 1 | 3 0) need to compute:
	lambda_T: 2
	istablizer: 3
	jstablizer: 4
	kstablizer: 3
	lstablizer: 4
	ijstablizer: 3
	klstablizer: 3
	R.size = 1
	0
	S.size = 1
	0
	T.size = 2
	0
	1
	(3 1 | 3 0)
	(3 1 | 4 0)
for (3 3 | 1 1) need to compute:
	lambda_T: 2
	istablizer: 3
	jstablizer: 3
	kstablizer: 4
	lstablizer: 4
	ijstablizer: 3
	klstablizer: 4
	R.size = 2
	0
	1
	S.size = 1
	0
	T.size = 1
	0
	(3 3 | 1 1)
	(3 4 | 1 1)
for (3 1 | 3 1) need to compute:
	lambda_T: 2
	istablizer: 3
	jstablizer: 4
	kstablizer: 3
	lstablizer: 4
	ijstablizer: 3
	klstablizer: 3
	R.size = 1
	0
	S.size = 1
	0
	T.size = 2
	0
	1
	(3 1 | 3 1)
	(3 1 | 4 1)
for (3 3 | 2 0) need to compute:
	lambda_T: 2
	istablizer: 3
	jstablizer: 3
	kstablizer: 4
	lstablizer: 4
	ijstablizer: 3
	klstablizer: 4
	R.size = 2
	0
	1
	S.size = 1
	0
	T.size = 1
	0
	(3 3 | 2 0)
	(3 4 | 2 0)
for (3 0 | 2 3) need to compute:
	lambda_T: 2
	istablizer: 3
	jstablizer: 4
	kstablizer: 4
	lstablizer: 3
	ijstablizer: 3
	klstablizer: 3
	R.size = 1
	0
	S.size = 1
	0
	T.size = 2
	0
	1
	(3 0 | 2 3)
	(3 0 | 2 4)
for (3 3 | 2 1) need to compute:
	lambda_T: 2
	istablizer: 3
	jstablizer: 3
	kstablizer: 4
	lstablizer: 4
	ijstablizer: 3
	klstablizer: 4
	R.size = 2
	0
	1
	S.size = 1
	0
	T.size = 1
	0
	(3 3 | 2 1)
	(3 4 | 2 1)
for (3 1 | 2 3) need to compute:
	lambda_T: 2
	istablizer: 3
	jstablizer: 4
	kstablizer: 4
	lstablizer: 3
	ijstablizer: 3
	klstablizer: 3
	R.size = 1
	0
	S.size = 1
	0
	T.size = 2
	0
	1
	(3 1 | 2 3)
	(3 1 | 2 4)
for (3 3 | 2 2) need to compute:
	lambda_T: 2
	istablizer: 3
	jstablizer: 3
	kstablizer: 4
	lstablizer: 4
	ijstablizer: 3
	klstablizer: 4
	R.size = 2
	0
	1
	S.size = 1
	0
	T.size = 1
	0
	(3 3 | 2 2)
	(3 4 | 2 2)
for (2 3 | 2 3) need to compute:
	lambda_T: 2
	istablizer: 4
	jstablizer: 3
	kstablizer: 4
	lstablizer: 3
	ijstablizer: 3
	klstablizer: 3
	R.size = 1
	0
	S.size = 1
	0
	T.size = 2
	0
	1
	(2 3 | 2 3)
	(2 3 | 2 4)
for (3 3 | 3 0) need to compute:
	lambda_T: 2
	istablizer: 3
	jstablizer: 3
	kstablizer: 3
	lstablizer: 4
	ijstablizer: 3
	klstablizer: 3
	R.size = 2
	0
	1
	S.size = 1
	0
	T.size = 2
	0
	1
	(3 3 | 3 0)
	(3 3 | 4 0)
	(3 4 | 3 0)
	(3 4 | 4 0)
for (3 3 | 3 1) need to compute:
	lambda_T: 2
	istablizer: 3
	jstablizer: 3
	kstablizer: 3
	lstablizer: 4
	ijstablizer: 3
	klstablizer: 3
	R.size = 2
	0
	1
	S.size = 1
	0
	T.size = 2
	0
	1
	(3 3 | 3 1)
	(3 3 | 4 1)
	(3 4 | 3 1)
	(3 4 | 4 1)
for (3 3 | 2 3) need to compute:
	lambda_T: 2
	istablizer: 3
	jstablizer: 3
	kstablizer: 4
	lstablizer: 3
	ijstablizer: 3
	klstablizer: 3
	R.size = 2
	0
	1
	S.size = 1
	0
	T.size = 2
	0
	1
	(3 3 | 2 3)
	(3 3 | 2 4)
	(3 4 | 2 3)
	(3 4 | 2 4)
for (3 3 | 3 3) need to compute:
	lambda_T: 2
	istablizer: 3
	jstablizer: 3
	kstablizer: 3
	lstablizer: 3
	ijstablizer: 3
	klstablizer: 3
	R.size = 2
	0
	1
	S.size = 2
	0
	1
	T.size = 2
	0
	1
	(3 3 | 3 3)
	(3 3 | 3 4)
	(3 3 | 4 4)
	(3 3 | 4 3)
	(3 4 | 3 3)
	(3 4 | 3 4)
	(3 4 | 4 4)
	(3 4 | 4 3)
done

      Computed 138 non-zero integrals.

  ==> Iterations <==

                        Total Energy        Delta E      Density RMS

   @RHF iter   1:   -73.25131932777838   -1.86273e+01    0.00000e+00 
   @RHF iter   2:   -74.93275460837255   -1.68144e+00    3.98729e-01 
   @RHF iter   3:   -74.96346801158053   -3.07134e-02    5.50082e-02 
   @RHF iter   4:   -74.96473048801464   -1.26248e-03    9.56836e-03 
   @RHF iter   5:   -74.96487974822792   -1.49260e-04    3.77928e-03 
   @RHF iter   6:   -74.96490659141315   -2.68432e-05    1.51388e-03 
   @RHF iter   7:   -74.96491179796698   -5.20655e-06    6.57582e-04 
   @RHF iter   8:   -74.96491282794337   -1.02998e-06    2.88206e-04 
   @RHF iter   9:   -74.96491303282654   -2.04883e-07    1.27602e-04 
   @RHF iter  10:   -74.96491307364815   -4.08216e-08    5.67072e-05 
   @RHF iter  11:   -74.96491308178540   -8.13725e-09    2.52577e-05 
   @RHF iter  12:   -74.96491308340769   -1.62230e-09    1.12626e-05 
   @RHF iter  13:   -74.96491308373110   -3.23411e-10    5.02523e-06 
   @RHF iter  14:   -74.96491308379561   -6.45031e-11    2.24293e-06 
   @RHF iter  15:   -74.96491308380847   -1.28608e-11    1.00128e-06 
   @RHF iter  16:   -74.96491308381104   -2.57216e-12    4.47032e-07 
   @RHF iter  17:   -74.96491308381154   -4.97380e-13    1.99593e-07 
   @RHF iter  18:   -74.96491308381161   -7.10543e-14    8.91180e-08 
   @RHF iter  19:   -74.96491308381162   -1.42109e-14    3.97917e-08 
   @RHF iter  20:   -74.96491308381162    0.00000e+00    1.77674e-08 
   @RHF iter  21:   -74.96491308381167   -4.26326e-14    7.93335e-09 
   @RHF iter  22:   -74.96491308381165    1.42109e-14    3.54235e-09 
   @RHF iter  23:   -74.96491308381164    1.42109e-14    1.58171e-09 
   @RHF iter  24:   -74.96491308381168   -4.26326e-14    7.06253e-10 
   @RHF iter  25:   -74.96491308381161    7.10543e-14    3.15354e-10 
   @RHF iter  26:   -74.96491308381165   -4.26326e-14    1.40809e-10 

  ==> Post-Iterations <==

	Orbital Energies (a.u.)
	-----------------------

	Doubly Occupied:                                                      

	   1A1   -20.247230     2A1    -1.249402     1B2    -0.596929  
	   3A1    -0.448867     1B1    -0.389281  

	Virtual:                                                              

	   4A1     0.567426     2B2     0.695559  

	Final Occupation by Irrep:
	         A1    A2    B1    B2 
	DOCC [     3,    0,    1,    1 ]

  Energy converged.

  @RHF Final Energy:   -74.96491308381165

  ==> Properties <==

 OEPROP: One-electron properties/analyses.
  by Rob Parrish and Justin Turney.
  built on LIBMINTS.

 Dipole Moment: (a.u.)
     X:     0.0000      Y:     0.0000      Z:     0.6588     Total:     0.6588

 Dipole Moment: (Debye)
     X:     0.0000      Y:     0.0000      Z:     1.6745     Total:     1.6745


  Saving occupied orbitals to File 100.

*** tstop() called on mac10147 at Tue Jun 14 09:57:11 2011
	user time   =       0.16 seconds =       0.00 minutes
	system time =       0.03 seconds =       0.00 minutes
	total time  =          0 seconds =       0.00 minutes

*** tstart() called on mac10147
*** at Tue Jun 14 09:57:11 2011

	There are an even number of electrons - assuming singlet.
	Specify the multiplicity with the MULTP option in the
	input if this is incorrect


         ---------------------------------------------------------
                                   SCF
            by Justin Turney, Rob Parrish, and Andy Simmonnett
                              RHF Reference
                        1 Threads,    256 MiB Core
         ---------------------------------------------------------

  ==> Geometry <==

    Molecular point group: c2v

    Geometry (in Angstrom), charge = 0, multiplicity = 1:

       Center              X                  Y                   Z       
    ------------   -----------------  -----------------  -----------------
           O          0.000000000000     0.000000000000    -0.068516219310
           H          0.000000000000     0.794416867278     0.543701060724
           H          0.000000000000    -0.794416867278     0.543701060724

    Number of unique atoms: 2

    Atoms equivalency:
       unique atom 0: 0 
       unique atom 1: 1 2 

  Running in c2v symmetry.

  Nuclear repulsion =    8.774994752436060

  Charge       = 0
  Multiplicity = 1
  Electrons    = 10
  Nalpha       = 5
  Nbeta        = 5

  ==> Algorithm <==

  SCF Algorithm Type is PK.
  DIIS disabled.
  MOM disabled.
  Guess Type is CORE.
  Energy threshold   = 1.00e-10
  Density threshold  = 1.00e-10
  Integral threshold = 0.00e+00

  ==> Primary Basis: STO-3G <==

  Basis Set
    Number of shells: 5
    Number of basis function: 7
    Number of Cartesian functions: 7
    Spherical Harmonics?: true
    Max angular momentum: 1

  ==> Pre-Iterations <==

  Minimum eigenvalue in the overlap matrix is 3.7223583086E-01.
  Using Symmetric Orthogonalization.
  SCF Guess: Core (One-Electron) Hamiltonian.

  Initial RHF energy:   -54.64445492366322

   -------------------------------------------------------
    Irrep   Nso     Nmo     Nalpha   Nbeta   Ndocc  Nsocc
   -------------------------------------------------------
     A1         4       4       3       3       3       0
     A2         0       0       0       0       0       0
     B1         1       1       1       1       1       0
     B2         2       2       1       1       1       0
   -------------------------------------------------------
    Total       7       7       5       5       5       0
   -------------------------------------------------------

  ==> Integral Setup <==

 MINTS: Wrapper to libmints.
   by Justin Turney

   Calculation information:
      Number of atoms:                   3
      Number of AO shells:               5
      Number of SO shells:               4
      Number of primitives:             15
      Number of atomic orbitals:         7
      Number of basis functions:         7

      Number of irreps:                  4
      Number of functions per irrep: [   4    0    1    2 ]

      Computing integrals...for (0 0 | 0 0) need to compute:
	lambda_T: 1
	istablizer: 4
	jstablizer: 4
	kstablizer: 4
	lstablizer: 4
	ijstablizer: 4
	klstablizer: 4
	R.size = 1
	0
	S.size = 1
	0
	T.size = 1
	0
	(0 0 | 0 0)
for (1 0 | 0 0) need to compute:
	lambda_T: 1
	istablizer: 4
	jstablizer: 4
	kstablizer: 4
	lstablizer: 4
	ijstablizer: 4
	klstablizer: 4
	R.size = 1
	0
	S.size = 1
	0
	T.size = 1
	0
	(1 0 | 0 0)
for (1 1 | 0 0) need to compute:
	lambda_T: 1
	istablizer: 4
	jstablizer: 4
	kstablizer: 4
	lstablizer: 4
	ijstablizer: 4
	klstablizer: 4
	R.size = 1
	0
	S.size = 1
	0
	T.size = 1
	0
	(1 1 | 0 0)
for (1 0 | 1 0) need to compute:
	lambda_T: 1
	istablizer: 4
	jstablizer: 4
	kstablizer: 4
	lstablizer: 4
	ijstablizer: 4
	klstablizer: 4
	R.size = 1
	0
	S.size = 1
	0
	T.size = 1
	0
	(1 0 | 1 0)
for (1 1 | 1 0) need to compute:
	lambda_T: 1
	istablizer: 4
	jstablizer: 4
	kstablizer: 4
	lstablizer: 4
	ijstablizer: 4
	klstablizer: 4
	R.size = 1
	0
	S.size = 1
	0
	T.size = 1
	0
	(1 1 | 1 0)
for (1 1 | 1 1) need to compute:
	lambda_T: 1
	istablizer: 4
	jstablizer: 4
	kstablizer: 4
	lstablizer: 4
	ijstablizer: 4
	klstablizer: 4
	R.size = 1
	0
	S.size = 1
	0
	T.size = 1
	0
	(1 1 | 1 1)
for (0 0 | 2 0) need to compute:
	lambda_T: 1
	istablizer: 4
	jstablizer: 4
	kstablizer: 4
	lstablizer: 4
	ijstablizer: 4
	klstablizer: 4
	R.size = 1
	0
	S.size = 1
	0
	T.size = 1
	0
for (0 0 | 2 1) need to compute:
	lambda_T: 1
	istablizer: 4
	jstablizer: 4
	kstablizer: 4
	lstablizer: 4
	ijstablizer: 4
	klstablizer: 4
	R.size = 1
	0
	S.size = 1
	0
	T.size = 1
	0
for (1 0 | 2 0) need to compute:
	lambda_T: 1
	istablizer: 4
	jstablizer: 4
	kstablizer: 4
	lstablizer: 4
	ijstablizer: 4
	klstablizer: 4
	R.size = 1
	0
	S.size = 1
	0
	T.size = 1
	0
for (1 0 | 2 1) need to compute:
	lambda_T: 1
	istablizer: 4
	jstablizer: 4
	kstablizer: 4
	lstablizer: 4
	ijstablizer: 4
	klstablizer: 4
	R.size = 1
	0
	S.size = 1
	0
	T.size = 1
	0
for (1 1 | 2 0) need to compute:
	lambda_T: 1
	istablizer: 4
	jstablizer: 4
	kstablizer: 4
	lstablizer: 4
	ijstablizer: 4
	klstablizer: 4
	R.size = 1
	0
	S.size = 1
	0
	T.size = 1
	0
for (1 1 | 2 1) need to compute:
	lambda_T: 1
	istablizer: 4
	jstablizer: 4
	kstablizer: 4
	lstablizer: 4
	ijstablizer: 4
	klstablizer: 4
	R.size = 1
	0
	S.size = 1
	0
	T.size = 1
	0
for (0 0 | 2 2) need to compute:
	lambda_T: 1
	istablizer: 4
	jstablizer: 4
	kstablizer: 4
	lstablizer: 4
	ijstablizer: 4
	klstablizer: 4
	R.size = 1
	0
	S.size = 1
	0
	T.size = 1
	0
	(0 0 | 2 2)
for (2 0 | 2 0) need to compute:
	lambda_T: 1
	istablizer: 4
	jstablizer: 4
	kstablizer: 4
	lstablizer: 4
	ijstablizer: 4
	klstablizer: 4
	R.size = 1
	0
	S.size = 1
	0
	T.size = 1
	0
	(2 0 | 2 0)
for (1 0 | 2 2) need to compute:
	lambda_T: 1
	istablizer: 4
	jstablizer: 4
	kstablizer: 4
	lstablizer: 4
	ijstablizer: 4
	klstablizer: 4
	R.size = 1
	0
	S.size = 1
	0
	T.size = 1
	0
	(1 0 | 2 2)
for (2 1 | 2 0) need to compute:
	lambda_T: 1
	istablizer: 4
	jstablizer: 4
	kstablizer: 4
	lstablizer: 4
	ijstablizer: 4
	klstablizer: 4
	R.size = 1
	0
	S.size = 1
	0
	T.size = 1
	0
	(2 1 | 2 0)
for (1 1 | 2 2) need to compute:
	lambda_T: 1
	istablizer: 4
	jstablizer: 4
	kstablizer: 4
	lstablizer: 4
	ijstablizer: 4
	klstablizer: 4
	R.size = 1
	0
	S.size = 1
	0
	T.size = 1
	0
	(1 1 | 2 2)
for (2 1 | 2 1) need to compute:
	lambda_T: 1
	istablizer: 4
	jstablizer: 4
	kstablizer: 4
	lstablizer: 4
	ijstablizer: 4
	klstablizer: 4
	R.size = 1
	0
	S.size = 1
	0
	T.size = 1
	0
	(2 1 | 2 1)
for (2 0 | 2 2) need to compute:
	lambda_T: 1
	istablizer: 4
	jstablizer: 4
	kstablizer: 4
	lstablizer: 4
	ijstablizer: 4
	klstablizer: 4
	R.size = 1
	0
	S.size = 1
	0
	T.size = 1
	0
for (2 1 | 2 2) need to compute:
	lambda_T: 1
	istablizer: 4
	jstablizer: 4
	kstablizer: 4
	lstablizer: 4
	ijstablizer: 4
	klstablizer: 4
	R.size = 1
	0
	S.size = 1
	0
	T.size = 1
	0
for (2 2 | 2 2) need to compute:
	lambda_T: 1
	istablizer: 4
	jstablizer: 4
	kstablizer: 4
	lstablizer: 4
	ijstablizer: 4
	klstablizer: 4
	R.size = 1
	0
	S.size = 1
	0
	T.size = 1
	0
	(2 2 | 2 2)
for (3 0 | 0 0) need to compute:
	lambda_T: 2
	istablizer: 3
	jstablizer: 4
	kstablizer: 4
	lstablizer: 4
	ijstablizer: 3
	klstablizer: 4
	R.size = 1
	0
	S.size = 1
	0
	T.size = 1
	0
	(3 0 | 0 0)
for (3 1 | 0 0) need to compute:
	lambda_T: 2
	istablizer: 3
	jstablizer: 4
	kstablizer: 4
	lstablizer: 4
	ijstablizer: 3
	klstablizer: 4
	R.size = 1
	0
	S.size = 1
	0
	T.size = 1
	0
	(3 1 | 0 0)
for (3 0 | 1 0) need to compute:
	lambda_T: 2
	istablizer: 3
	jstablizer: 4
	kstablizer: 4
	lstablizer: 4
	ijstablizer: 3
	klstablizer: 4
	R.size = 1
	0
	S.size = 1
	0
	T.size = 1
	0
	(3 0 | 1 0)
for (3 1 | 1 0) need to compute:
	lambda_T: 2
	istablizer: 3
	jstablizer: 4
	kstablizer: 4
	lstablizer: 4
	ijstablizer: 3
	klstablizer: 4
	R.size = 1
	0
	S.size = 1
	0
	T.size = 1
	0
	(3 1 | 1 0)
for (3 0 | 1 1) need to compute:
	lambda_T: 2
	istablizer: 3
	jstablizer: 4
	kstablizer: 4
	lstablizer: 4
	ijstablizer: 3
	klstablizer: 4
	R.size = 1
	0
	S.size = 1
	0
	T.size = 1
	0
	(3 0 | 1 1)
for (3 1 | 1 1) need to compute:
	lambda_T: 2
	istablizer: 3
	jstablizer: 4
	kstablizer: 4
	lstablizer: 4
	ijstablizer: 3
	klstablizer: 4
	R.size = 1
	0
	S.size = 1
	0
	T.size = 1
	0
	(3 1 | 1 1)
for (0 0 | 2 3) need to compute:
	lambda_T: 2
	istablizer: 4
	jstablizer: 4
	kstablizer: 4
	lstablizer: 3
	ijstablizer: 4
	klstablizer: 3
	R.size = 1
	0
	S.size = 1
	0
	T.size = 1
	0
	(0 0 | 2 3)
for (3 0 | 2 0) need to compute:
	lambda_T: 2
	istablizer: 3
	jstablizer: 4
	kstablizer: 4
	lstablizer: 4
	ijstablizer: 3
	klstablizer: 4
	R.size = 1
	0
	S.size = 1
	0
	T.size = 1
	0
	(3 0 | 2 0)
for (1 0 | 2 3) need to compute:
	lambda_T: 2
	istablizer: 4
	jstablizer: 4
	kstablizer: 4
	lstablizer: 3
	ijstablizer: 4
	klstablizer: 3
	R.size = 1
	0
	S.size = 1
	0
	T.size = 1
	0
	(1 0 | 2 3)
for (3 1 | 2 0) need to compute:
	lambda_T: 2
	istablizer: 3
	jstablizer: 4
	kstablizer: 4
	lstablizer: 4
	ijstablizer: 3
	klstablizer: 4
	R.size = 1
	0
	S.size = 1
	0
	T.size = 1
	0
	(3 1 | 2 0)
for (3 0 | 2 1) need to compute:
	lambda_T: 2
	istablizer: 3
	jstablizer: 4
	kstablizer: 4
	lstablizer: 4
	ijstablizer: 3
	klstablizer: 4
	R.size = 1
	0
	S.size = 1
	0
	T.size = 1
	0
	(3 0 | 2 1)
for (1 1 | 2 3) need to compute:
	lambda_T: 2
	istablizer: 4
	jstablizer: 4
	kstablizer: 4
	lstablizer: 3
	ijstablizer: 4
	klstablizer: 3
	R.size = 1
	0
	S.size = 1
	0
	T.size = 1
	0
	(1 1 | 2 3)
for (3 1 | 2 1) need to compute:
	lambda_T: 2
	istablizer: 3
	jstablizer: 4
	kstablizer: 4
	lstablizer: 4
	ijstablizer: 3
	klstablizer: 4
	R.size = 1
	0
	S.size = 1
	0
	T.size = 1
	0
	(3 1 | 2 1)
for (2 3 | 2 0) need to compute:
	lambda_T: 2
	istablizer: 4
	jstablizer: 3
	kstablizer: 4
	lstablizer: 4
	ijstablizer: 3
	klstablizer: 4
	R.size = 1
	0
	S.size = 1
	0
	T.size = 1
	0
	(2 3 | 2 0)
for (3 0 | 2 2) need to compute:
	lambda_T: 2
	istablizer: 3
	jstablizer: 4
	kstablizer: 4
	lstablizer: 4
	ijstablizer: 3
	klstablizer: 4
	R.size = 1
	0
	S.size = 1
	0
	T.size = 1
	0
	(3 0 | 2 2)
for (2 3 | 2 1) need to compute:
	lambda_T: 2
	istablizer: 4
	jstablizer: 3
	kstablizer: 4
	lstablizer: 4
	ijstablizer: 3
	klstablizer: 4
	R.size = 1
	0
	S.size = 1
	0
	T.size = 1
	0
	(2 3 | 2 1)
for (3 1 | 2 2) need to compute:
	lambda_T: 2
	istablizer: 3
	jstablizer: 4
	kstablizer: 4
	lstablizer: 4
	ijstablizer: 3
	klstablizer: 4
	R.size = 1
	0
	S.size = 1
	0
	T.size = 1
	0
	(3 1 | 2 2)
for (2 3 | 2 2) need to compute:
	lambda_T: 2
	istablizer: 4
	jstablizer: 3
	kstablizer: 4
	lstablizer: 4
	ijstablizer: 3
	klstablizer: 4
	R.size = 1
	0
	S.size = 1
	0
	T.size = 1
	0
	(2 3 | 2 2)
for (3 3 | 0 0) need to compute:
	lambda_T: 2
	istablizer: 3
	jstablizer: 3
	kstablizer: 4
	lstablizer: 4
	ijstablizer: 3
	klstablizer: 4
	R.size = 2
	0
	1
	S.size = 1
	0
	T.size = 1
	0
	(3 3 | 0 0)
	(3 4 | 0 0)
for (3 0 | 3 0) need to compute:
	lambda_T: 2
	istablizer: 3
	jstablizer: 4
	kstablizer: 3
	lstablizer: 4
	ijstablizer: 3
	klstablizer: 3
	R.size = 1
	0
	S.size = 1
	0
	T.size = 2
	0
	1
	(3 0 | 3 0)
	(3 0 | 4 0)
for (3 3 | 1 0) need to compute:
	lambda_T: 2
	istablizer: 3
	jstablizer: 3
	kstablizer: 4
	lstablizer: 4
	ijstablizer: 3
	klstablizer: 4
	R.size = 2
	0
	1
	S.size = 1
	0
	T.size = 1
	0
	(3 3 | 1 0)
	(3 4 | 1 0)
for (3 1 | 3 0) need to compute:
	lambda_T: 2
	istablizer: 3
	jstablizer: 4
	kstablizer: 3
	lstablizer: 4
	ijstablizer: 3
	klstablizer: 3
	R.size = 1
	0
	S.size = 1
	0
	T.size = 2
	0
	1
	(3 1 | 3 0)
	(3 1 | 4 0)
for (3 3 | 1 1) need to compute:
	lambda_T: 2
	istablizer: 3
	jstablizer: 3
	kstablizer: 4
	lstablizer: 4
	ijstablizer: 3
	klstablizer: 4
	R.size = 2
	0
	1
	S.size = 1
	0
	T.size = 1
	0
	(3 3 | 1 1)
	(3 4 | 1 1)
for (3 1 | 3 1) need to compute:
	lambda_T: 2
	istablizer: 3
	jstablizer: 4
	kstablizer: 3
	lstablizer: 4
	ijstablizer: 3
	klstablizer: 3
	R.size = 1
	0
	S.size = 1
	0
	T.size = 2
	0
	1
	(3 1 | 3 1)
	(3 1 | 4 1)
for (3 3 | 2 0) need to compute:
	lambda_T: 2
	istablizer: 3
	jstablizer: 3
	kstablizer: 4
	lstablizer: 4
	ijstablizer: 3
	klstablizer: 4
	R.size = 2
	0
	1
	S.size = 1
	0
	T.size = 1
	0
	(3 3 | 2 0)
	(3 4 | 2 0)
for (3 0 | 2 3) need to compute:
	lambda_T: 2
	istablizer: 3
	jstablizer: 4
	kstablizer: 4
	lstablizer: 3
	ijstablizer: 3
	klstablizer: 3
	R.size = 1
	0
	S.size = 1
	0
	T.size = 2
	0
	1
	(3 0 | 2 3)
	(3 0 | 2 4)
for (3 3 | 2 1) need to compute:
	lambda_T: 2
	istablizer: 3
	jstablizer: 3
	kstablizer: 4
	lstablizer: 4
	ijstablizer: 3
	klstablizer: 4
	R.size = 2
	0
	1
	S.size = 1
	0
	T.size = 1
	0
	(3 3 | 2 1)
	(3 4 | 2 1)
for (3 1 | 2 3) need to compute:
	lambda_T: 2
	istablizer: 3
	jstablizer: 4
	kstablizer: 4
	lstablizer: 3
	ijstablizer: 3
	klstablizer: 3
	R.size = 1
	0
	S.size = 1
	0
	T.size = 2
	0
	1
	(3 1 | 2 3)
	(3 1 | 2 4)
for (3 3 | 2 2) need to compute:
	lambda_T: 2
	istablizer: 3
	jstablizer: 3
	kstablizer: 4
	lstablizer: 4
	ijstablizer: 3
	klstablizer: 4
	R.size = 2
	0
	1
	S.size = 1
	0
	T.size = 1
	0
	(3 3 | 2 2)
	(3 4 | 2 2)
for (2 3 | 2 3) need to compute:
	lambda_T: 2
	istablizer: 4
	jstablizer: 3
	kstablizer: 4
	lstablizer: 3
	ijstablizer: 3
	klstablizer: 3
	R.size = 1
	0
	S.size = 1
	0
	T.size = 2
	0
	1
	(2 3 | 2 3)
	(2 3 | 2 4)
for (3 3 | 3 0) need to compute:
	lambda_T: 2
	istablizer: 3
	jstablizer: 3
	kstablizer: 3
	lstablizer: 4
	ijstablizer: 3
	klstablizer: 3
	R.size = 2
	0
	1
	S.size = 1
	0
	T.size = 2
	0
	1
	(3 3 | 3 0)
	(3 3 | 4 0)
	(3 4 | 3 0)
	(3 4 | 4 0)
for (3 3 | 3 1) need to compute:
	lambda_T: 2
	istablizer: 3
	jstablizer: 3
	kstablizer: 3
	lstablizer: 4
	ijstablizer: 3
	klstablizer: 3
	R.size = 2
	0
	1
	S.size = 1
	0
	T.size = 2
	0
	1
	(3 3 | 3 1)
	(3 3 | 4 1)
	(3 4 | 3 1)
	(3 4 | 4 1)
for (3 3 | 2 3) need to compute:
	lambda_T: 2
	istablizer: 3
	jstablizer: 3
	kstablizer: 4
	lstablizer: 3
	ijstablizer: 3
	klstablizer: 3
	R.size = 2
	0
	1
	S.size = 1
	0
	T.size = 2
	0
	1
	(3 3 | 2 3)
	(3 3 | 2 4)
	(3 4 | 2 3)
	(3 4 | 2 4)
for (3 3 | 3 3) need to compute:
	lambda_T: 2
	istablizer: 3
	jstablizer: 3
	kstablizer: 3
	lstablizer: 3
	ijstablizer: 3
	klstablizer: 3
	R.size = 2
	0
	1
	S.size = 2
	0
	1
	T.size = 2
	0
	1
	(3 3 | 3 3)
	(3 3 | 3 4)
	(3 3 | 4 4)
	(3 3 | 4 3)
	(3 4 | 3 3)
	(3 4 | 3 4)
	(3 4 | 4 4)
	(3 4 | 4 3)
done

      Computed 138 non-zero integrals.

  ==> Iterations <==

                        Total Energy        Delta E      Density RMS

   @RHF iter   1:   -73.25468418559758   -1.86102e+01    0.00000e+00 
   @RHF iter   2:   -74.93015880275313   -1.67547e+00    3.98042e-01 
   @RHF iter   3:   -74.96282031476656   -3.26615e-02    5.66565e-02 
   @RHF iter   4:   -74.96417183881788   -1.35152e-03    9.80893e-03 
   @RHF iter   5:   -74.96433123221145   -1.59393e-04    3.89357e-03 
   @RHF iter   6:   -74.96436019217886   -2.89600e-05    1.56419e-03 
   @RHF iter   7:   -74.96436586878558   -5.67661e-06    6.83813e-04 
   @RHF iter   8:   -74.96436700306721   -1.13428e-06    3.01238e-04 
   @RHF iter   9:   -74.96436723091767   -2.27850e-07    1.34061e-04 
   @RHF iter  10:   -74.96436727675795   -4.58403e-08    5.98746e-05 
   @RHF iter  11:   -74.96436728598449   -9.22654e-09    2.68001e-05 
   @RHF iter  12:   -74.96436728784177   -1.85727e-09    1.20088e-05 
   @RHF iter  13:   -74.96436728821566   -3.73888e-10    5.38426e-06 
   @RHF iter  14:   -74.96436728829090   -7.52465e-11    2.41486e-06 
   @RHF iter  15:   -74.96436728830606   -1.51630e-11    1.08326e-06 
   @RHF iter  16:   -74.96436728830911   -3.04112e-12    4.85977e-07 
   @RHF iter  17:   -74.96436728830979   -6.82121e-13    2.18033e-07 
   @RHF iter  18:   -74.96436728830992   -1.27898e-13    9.78228e-08 
   @RHF iter  19:   -74.96436728830989    2.84217e-14    4.38900e-08 
   @RHF iter  20:   -74.96436728830990   -1.42109e-14    1.96922e-08 
   @RHF iter  21:   -74.96436728830987    2.84217e-14    8.83538e-09 
   @RHF iter  22:   -74.96436728830993   -5.68434e-14    3.96421e-09 
   @RHF iter  23:   -74.96436728830986    7.10543e-14    1.77865e-09 
   @RHF iter  24:   -74.96436728830987   -1.42109e-14    7.98037e-10 
   @RHF iter  25:   -74.96436728830993   -5.68434e-14    3.58060e-10 
   @RHF iter  26:   -74.96436728830989    4.26326e-14    1.60652e-10 

  ==> Post-Iterations <==

	Orbital Energies (a.u.)
	-----------------------

	Doubly Occupied:                                                      

	   1A1   -20.247313     2A1    -1.246162     1B2    -0.594767  
	   3A1    -0.446905     1B1    -0.388636  

	Virtual:                                                              

	   4A1     0.560881     2B2     0.690461  

	Final Occupation by Irrep:
	         A1    A2    B1    B2 
	DOCC [     3,    0,    1,    1 ]

  Energy converged.

  @RHF Final Energy:   -74.96436728830989

  ==> Properties <==

 OEPROP: One-electron properties/analyses.
  by Rob Parrish and Justin Turney.
  built on LIBMINTS.

 Dipole Moment: (a.u.)
     X:     0.0000      Y:     0.0000      Z:     0.6545     Total:     0.6545

 Dipole Moment: (Debye)
     X:     0.0000      Y:     0.0000      Z:     1.6635     Total:     1.6635


  Saving occupied orbitals to File 100.

*** tstop() called on mac10147 at Tue Jun 14 09:57:11 2011
	user time   =       0.21 seconds =       0.00 minutes
	system time =       0.04 seconds =       0.00 minutes
	total time  =          0 seconds =       0.00 minutes

*** tstart() called on mac10147
*** at Tue Jun 14 09:57:11 2011

	There are an even number of electrons - assuming singlet.
	Specify the multiplicity with the MULTP option in the
	input if this is incorrect


         ---------------------------------------------------------
                                   SCF
            by Justin Turney, Rob Parrish, and Andy Simmonnett
                              RHF Reference
                        1 Threads,    256 MiB Core
         ---------------------------------------------------------

  ==> Geometry <==

    Molecular point group: c2v

    Geometry (in Angstrom), charge = 0, multiplicity = 1:

       Center              X                  Y                   Z       
    ------------   -----------------  -----------------  -----------------
           O          0.000000000000     0.000000000000    -0.068099079727
           H          0.000000000000     0.790689573744     0.540390906774
           H          0.000000000000    -0.790689573744     0.540390906774

    Number of unique atoms: 2

    Atoms equivalency:
       unique atom 0: 0 
       unique atom 1: 1 2 

  Running in c2v symmetry.

  Nuclear repulsion =    8.820793955890426

  Charge       = 0
  Multiplicity = 1
  Electrons    = 10
  Nalpha       = 5
  Nbeta        = 5

  ==> Algorithm <==

  SCF Algorithm Type is PK.
  DIIS disabled.
  MOM disabled.
  Guess Type is CORE.
  Energy threshold   = 1.00e-10
  Density threshold  = 1.00e-10
  Integral threshold = 0.00e+00

  ==> Primary Basis: STO-3G <==

  Basis Set
    Number of shells: 5
    Number of basis function: 7
    Number of Cartesian functions: 7
    Spherical Harmonics?: true
    Max angular momentum: 1

  ==> Pre-Iterations <==

  Minimum eigenvalue in the overlap matrix is 3.6883269490E-01.
  Using Symmetric Orthogonalization.
  SCF Guess: Core (One-Electron) Hamiltonian.

  Initial RHF energy:   -54.62786182555226

   -------------------------------------------------------
    Irrep   Nso     Nmo     Nalpha   Nbeta   Ndocc  Nsocc
   -------------------------------------------------------
     A1         4       4       3       3       3       0
     A2         0       0       0       0       0       0
     B1         1       1       1       1       1       0
     B2         2       2       1       1       1       0
   -------------------------------------------------------
    Total       7       7       5       5       5       0
   -------------------------------------------------------

  ==> Integral Setup <==

 MINTS: Wrapper to libmints.
   by Justin Turney

   Calculation information:
      Number of atoms:                   3
      Number of AO shells:               5
      Number of SO shells:               4
      Number of primitives:             15
      Number of atomic orbitals:         7
      Number of basis functions:         7

      Number of irreps:                  4
      Number of functions per irrep: [   4    0    1    2 ]

      Computing integrals...for (0 0 | 0 0) need to compute:
	lambda_T: 1
	istablizer: 4
	jstablizer: 4
	kstablizer: 4
	lstablizer: 4
	ijstablizer: 4
	klstablizer: 4
	R.size = 1
	0
	S.size = 1
	0
	T.size = 1
	0
	(0 0 | 0 0)
for (1 0 | 0 0) need to compute:
	lambda_T: 1
	istablizer: 4
	jstablizer: 4
	kstablizer: 4
	lstablizer: 4
	ijstablizer: 4
	klstablizer: 4
	R.size = 1
	0
	S.size = 1
	0
	T.size = 1
	0
	(1 0 | 0 0)
for (1 1 | 0 0) need to compute:
	lambda_T: 1
	istablizer: 4
	jstablizer: 4
	kstablizer: 4
	lstablizer: 4
	ijstablizer: 4
	klstablizer: 4
	R.size = 1
	0
	S.size = 1
	0
	T.size = 1
	0
	(1 1 | 0 0)
for (1 0 | 1 0) need to compute:
	lambda_T: 1
	istablizer: 4
	jstablizer: 4
	kstablizer: 4
	lstablizer: 4
	ijstablizer: 4
	klstablizer: 4
	R.size = 1
	0
	S.size = 1
	0
	T.size = 1
	0
	(1 0 | 1 0)
for (1 1 | 1 0) need to compute:
	lambda_T: 1
	istablizer: 4
	jstablizer: 4
	kstablizer: 4
	lstablizer: 4
	ijstablizer: 4
	klstablizer: 4
	R.size = 1
	0
	S.size = 1
	0
	T.size = 1
	0
	(1 1 | 1 0)
for (1 1 | 1 1) need to compute:
	lambda_T: 1
	istablizer: 4
	jstablizer: 4
	kstablizer: 4
	lstablizer: 4
	ijstablizer: 4
	klstablizer: 4
	R.size = 1
	0
	S.size = 1
	0
	T.size = 1
	0
	(1 1 | 1 1)
for (0 0 | 2 0) need to compute:
	lambda_T: 1
	istablizer: 4
	jstablizer: 4
	kstablizer: 4
	lstablizer: 4
	ijstablizer: 4
	klstablizer: 4
	R.size = 1
	0
	S.size = 1
	0
	T.size = 1
	0
for (0 0 | 2 1) need to compute:
	lambda_T: 1
	istablizer: 4
	jstablizer: 4
	kstablizer: 4
	lstablizer: 4
	ijstablizer: 4
	klstablizer: 4
	R.size = 1
	0
	S.size = 1
	0
	T.size = 1
	0
for (1 0 | 2 0) need to compute:
	lambda_T: 1
	istablizer: 4
	jstablizer: 4
	kstablizer: 4
	lstablizer: 4
	ijstablizer: 4
	klstablizer: 4
	R.size = 1
	0
	S.size = 1
	0
	T.size = 1
	0
for (1 0 | 2 1) need to compute:
	lambda_T: 1
	istablizer: 4
	jstablizer: 4
	kstablizer: 4
	lstablizer: 4
	ijstablizer: 4
	klstablizer: 4
	R.size = 1
	0
	S.size = 1
	0
	T.size = 1
	0
for (1 1 | 2 0) need to compute:
	lambda_T: 1
	istablizer: 4
	jstablizer: 4
	kstablizer: 4
	lstablizer: 4
	ijstablizer: 4
	klstablizer: 4
	R.size = 1
	0
	S.size = 1
	0
	T.size = 1
	0
for (1 1 | 2 1) need to compute:
	lambda_T: 1
	istablizer: 4
	jstablizer: 4
	kstablizer: 4
	lstablizer: 4
	ijstablizer: 4
	klstablizer: 4
	R.size = 1
	0
	S.size = 1
	0
	T.size = 1
	0
for (0 0 | 2 2) need to compute:
	lambda_T: 1
	istablizer: 4
	jstablizer: 4
	kstablizer: 4
	lstablizer: 4
	ijstablizer: 4
	klstablizer: 4
	R.size = 1
	0
	S.size = 1
	0
	T.size = 1
	0
	(0 0 | 2 2)
for (2 0 | 2 0) need to compute:
	lambda_T: 1
	istablizer: 4
	jstablizer: 4
	kstablizer: 4
	lstablizer: 4
	ijstablizer: 4
	klstablizer: 4
	R.size = 1
	0
	S.size = 1
	0
	T.size = 1
	0
	(2 0 | 2 0)
for (1 0 | 2 2) need to compute:
	lambda_T: 1
	istablizer: 4
	jstablizer: 4
	kstablizer: 4
	lstablizer: 4
	ijstablizer: 4
	klstablizer: 4
	R.size = 1
	0
	S.size = 1
	0
	T.size = 1
	0
	(1 0 | 2 2)
for (2 1 | 2 0) need to compute:
	lambda_T: 1
	istablizer: 4
	jstablizer: 4
	kstablizer: 4
	lstablizer: 4
	ijstablizer: 4
	klstablizer: 4
	R.size = 1
	0
	S.size = 1
	0
	T.size = 1
	0
	(2 1 | 2 0)
for (1 1 | 2 2) need to compute:
	lambda_T: 1
	istablizer: 4
	jstablizer: 4
	kstablizer: 4
	lstablizer: 4
	ijstablizer: 4
	klstablizer: 4
	R.size = 1
	0
	S.size = 1
	0
	T.size = 1
	0
	(1 1 | 2 2)
for (2 1 | 2 1) need to compute:
	lambda_T: 1
	istablizer: 4
	jstablizer: 4
	kstablizer: 4
	lstablizer: 4
	ijstablizer: 4
	klstablizer: 4
	R.size = 1
	0
	S.size = 1
	0
	T.size = 1
	0
	(2 1 | 2 1)
for (2 0 | 2 2) need to compute:
	lambda_T: 1
	istablizer: 4
	jstablizer: 4
	kstablizer: 4
	lstablizer: 4
	ijstablizer: 4
	klstablizer: 4
	R.size = 1
	0
	S.size = 1
	0
	T.size = 1
	0
for (2 1 | 2 2) need to compute:
	lambda_T: 1
	istablizer: 4
	jstablizer: 4
	kstablizer: 4
	lstablizer: 4
	ijstablizer: 4
	klstablizer: 4
	R.size = 1
	0
	S.size = 1
	0
	T.size = 1
	0
for (2 2 | 2 2) need to compute:
	lambda_T: 1
	istablizer: 4
	jstablizer: 4
	kstablizer: 4
	lstablizer: 4
	ijstablizer: 4
	klstablizer: 4
	R.size = 1
	0
	S.size = 1
	0
	T.size = 1
	0
	(2 2 | 2 2)
for (3 0 | 0 0) need to compute:
	lambda_T: 2
	istablizer: 3
	jstablizer: 4
	kstablizer: 4
	lstablizer: 4
	ijstablizer: 3
	klstablizer: 4
	R.size = 1
	0
	S.size = 1
	0
	T.size = 1
	0
	(3 0 | 0 0)
for (3 1 | 0 0) need to compute:
	lambda_T: 2
	istablizer: 3
	jstablizer: 4
	kstablizer: 4
	lstablizer: 4
	ijstablizer: 3
	klstablizer: 4
	R.size = 1
	0
	S.size = 1
	0
	T.size = 1
	0
	(3 1 | 0 0)
for (3 0 | 1 0) need to compute:
	lambda_T: 2
	istablizer: 3
	jstablizer: 4
	kstablizer: 4
	lstablizer: 4
	ijstablizer: 3
	klstablizer: 4
	R.size = 1
	0
	S.size = 1
	0
	T.size = 1
	0
	(3 0 | 1 0)
for (3 1 | 1 0) need to compute:
	lambda_T: 2
	istablizer: 3
	jstablizer: 4
	kstablizer: 4
	lstablizer: 4
	ijstablizer: 3
	klstablizer: 4
	R.size = 1
	0
	S.size = 1
	0
	T.size = 1
	0
	(3 1 | 1 0)
for (3 0 | 1 1) need to compute:
	lambda_T: 2
	istablizer: 3
	jstablizer: 4
	kstablizer: 4
	lstablizer: 4
	ijstablizer: 3
	klstablizer: 4
	R.size = 1
	0
	S.size = 1
	0
	T.size = 1
	0
	(3 0 | 1 1)
for (3 1 | 1 1) need to compute:
	lambda_T: 2
	istablizer: 3
	jstablizer: 4
	kstablizer: 4
	lstablizer: 4
	ijstablizer: 3
	klstablizer: 4
	R.size = 1
	0
	S.size = 1
	0
	T.size = 1
	0
	(3 1 | 1 1)
[...]
  MOM disabled.
  Guess Type is CORE.
  Energy threshold   = 1.00e-10
  Density threshold  = 1.00e-10
  Integral threshold = 0.00e+00

  ==> Primary Basis: STO-3G <==

  Basis Set
    Number of shells: 5
    Number of basis function: 7
    Number of Cartesian functions: 7
    Spherical Harmonics?: true
    Max angular momentum: 1

  ==> Pre-Iterations <==

  Minimum eigenvalue in the overlap matrix is 3.6319246962E-01.
  Using Symmetric Orthogonalization.
  SCF Guess: Core (One-Electron) Hamiltonian.

  Initial RHF energy:   -54.58600439838673

   -------------------------------------------------------
    Irrep   Nso     Nmo     Nalpha   Nbeta   Ndocc  Nsocc
   -------------------------------------------------------
     A1         4       4       3       3       3       0
     A2         0       0       0       0       0       0
     B1         1       1       1       1       1       0
     B2         2       2       1       1       1       0
   -------------------------------------------------------
    Total       7       7       5       5       5       0
   -------------------------------------------------------

  ==> Integral Setup <==

 MINTS: Wrapper to libmints.
   by Justin Turney

   Calculation information:
      Number of atoms:                   3
      Number of AO shells:               5
      Number of SO shells:               4
      Number of primitives:             15
      Number of atomic orbitals:         7
      Number of basis functions:         7

      Number of irreps:                  4
      Number of functions per irrep: [   4    0    1    2 ]

      Computing integrals...for (0 0 | 0 0) need to compute:
	lambda_T: 1
	istablizer: 4
	jstablizer: 4
	kstablizer: 4
	lstablizer: 4
	ijstablizer: 4
	klstablizer: 4
	R.size = 1
	0
	S.size = 1
	0
	T.size = 1
	0
	(0 0 | 0 0)
for (1 0 | 0 0) need to compute:
	lambda_T: 1
	istablizer: 4
	jstablizer: 4
	kstablizer: 4
	lstablizer: 4
	ijstablizer: 4
	klstablizer: 4
	R.size = 1
	0
	S.size = 1
	0
	T.size = 1
	0
	(1 0 | 0 0)
for (1 1 | 0 0) need to compute:
	lambda_T: 1
	istablizer: 4
	jstablizer: 4
	kstablizer: 4
	lstablizer: 4
	ijstablizer: 4
	klstablizer: 4
	R.size = 1
	0
	S.size = 1
	0
	T.size = 1
	0
	(1 1 | 0 0)
for (1 0 | 1 0) need to compute:
	lambda_T: 1
	istablizer: 4
	jstablizer: 4
	kstablizer: 4
	lstablizer: 4
	ijstablizer: 4
	klstablizer: 4
	R.size = 1
	0
	S.size = 1
	0
	T.size = 1
	0
	(1 0 | 1 0)
for (1 1 | 1 0) need to compute:
	lambda_T: 1
	istablizer: 4
	jstablizer: 4
	kstablizer: 4
	lstablizer: 4
	ijstablizer: 4
	klstablizer: 4
	R.size = 1
	0
	S.size = 1
	0
	T.size = 1
	0
	(1 1 | 1 0)
for (1 1 | 1 1) need to compute:
	lambda_T: 1
	istablizer: 4
	jstablizer: 4
	kstablizer: 4
	lstablizer: 4
	ijstablizer: 4
	klstablizer: 4
	R.size = 1
	0
	S.size = 1
	0
	T.size = 1
	0
	(1 1 | 1 1)
for (0 0 | 2 0) need to compute:
	lambda_T: 1
	istablizer: 4
	jstablizer: 4
	kstablizer: 4
	lstablizer: 4
	ijstablizer: 4
	klstablizer: 4
	R.size = 1
	0
	S.size = 1
	0
	T.size = 1
	0
for (0 0 | 2 1) need to compute:
	lambda_T: 1
	istablizer: 4
	jstablizer: 4
	kstablizer: 4
	lstablizer: 4
	ijstablizer: 4
	klstablizer: 4
	R.size = 1
	0
	S.size = 1
	0
	T.size = 1
	0
for (1 0 | 2 0) need to compute:
	lambda_T: 1
	istablizer: 4
	jstablizer: 4
	kstablizer: 4
	lstablizer: 4
	ijstablizer: 4
	klstablizer: 4
	R.size = 1
	0
	S.size = 1
	0
	T.size = 1
	0
for (1 0 | 2 1) need to compute:
	lambda_T: 1
	istablizer: 4
	jstablizer: 4
	kstablizer: 4
	lstablizer: 4
	ijstablizer: 4
	klstablizer: 4
	R.size = 1
	0
	S.size = 1
	0
	T.size = 1
	0
for (1 1 | 2 0) need to compute:
	lambda_T: 1
	istablizer: 4
	jstablizer: 4
	kstablizer: 4
	lstablizer: 4
	ijstablizer: 4
	klstablizer: 4
	R.size = 1
	0
	S.size = 1
	0
	T.size = 1
	0
for (1 1 | 2 1) need to compute:
	lambda_T: 1
	istablizer: 4
	jstablizer: 4
	kstablizer: 4
	lstablizer: 4
	ijstablizer: 4
	klstablizer: 4
	R.size = 1
	0
	S.size = 1
	0
	T.size = 1
	0
for (0 0 | 2 2) need to compute:
	lambda_T: 1
	istablizer: 4
	jstablizer: 4
	kstablizer: 4
	lstablizer: 4
	ijstablizer: 4
	klstablizer: 4
	R.size = 1
	0
	S.size = 1
	0
	T.size = 1
	0
	(0 0 | 2 2)
for (2 0 | 2 0) need to compute:
	lambda_T: 1
	istablizer: 4
	jstablizer: 4
	kstablizer: 4
	lstablizer: 4
	ijstablizer: 4
	klstablizer: 4
	R.size = 1
	0
	S.size = 1
	0
	T.size = 1
	0
	(2 0 | 2 0)
for (1 0 | 2 2) need to compute:
	lambda_T: 1
	istablizer: 4
	jstablizer: 4
	kstablizer: 4
	lstablizer: 4
	ijstablizer: 4
	klstablizer: 4
	R.size = 1
	0
	S.size = 1
	0
	T.size = 1
	0
	(1 0 | 2 2)
for (2 1 | 2 0) need to compute:
	lambda_T: 1
	istablizer: 4
	jstablizer: 4
	kstablizer: 4
	lstablizer: 4
	ijstablizer: 4
	klstablizer: 4
	R.size = 1
	0
	S.size = 1
	0
	T.size = 1
	0
	(2 1 | 2 0)
for (1 1 | 2 2) need to compute:
	lambda_T: 1
	istablizer: 4
	jstablizer: 4
	kstablizer: 4
	lstablizer: 4
	ijstablizer: 4
	klstablizer: 4
	R.size = 1
	0
	S.size = 1
	0
	T.size = 1
	0
	(1 1 | 2 2)
for (2 1 | 2 1) need to compute:
	lambda_T: 1
	istablizer: 4
	jstablizer: 4
	kstablizer: 4
	lstablizer: 4
	ijstablizer: 4
	klstablizer: 4
	R.size = 1
	0
	S.size = 1
	0
	T.size = 1
	0
	(2 1 | 2 1)
for (2 0 | 2 2) need to compute:
	lambda_T: 1
	istablizer: 4
	jstablizer: 4
	kstablizer: 4
	lstablizer: 4
	ijstablizer: 4
	klstablizer: 4
	R.size = 1
	0
	S.size = 1
	0
	T.size = 1
	0
for (2 1 | 2 2) need to compute:
	lambda_T: 1
	istablizer: 4
	jstablizer: 4
	kstablizer: 4
	lstablizer: 4
	ijstablizer: 4
	klstablizer: 4
	R.size = 1
	0
	S.size = 1
	0
	T.size = 1
	0
for (2 2 | 2 2) need to compute:
	lambda_T: 1
	istablizer: 4
	jstablizer: 4
	kstablizer: 4
	lstablizer: 4
	ijstablizer: 4
	klstablizer: 4
	R.size = 1
	0
	S.size = 1
	0
	T.size = 1
	0
	(2 2 | 2 2)
for (3 0 | 0 0) need to compute:
	lambda_T: 2
	istablizer: 3
	jstablizer: 4
	kstablizer: 4
	lstablizer: 4
	ijstablizer: 3
	klstablizer: 4
	R.size = 1
	0
	S.size = 1
	0
	T.size = 1
	0
	(3 0 | 0 0)
for (3 1 | 0 0) need to compute:
	lambda_T: 2
	istablizer: 3
	jstablizer: 4
	kstablizer: 4
	lstablizer: 4
	ijstablizer: 3
	klstablizer: 4
	R.size = 1
	0
	S.size = 1
	0
	T.size = 1
	0
	(3 1 | 0 0)
for (3 0 | 1 0) need to compute:
	lambda_T: 2
	istablizer: 3
	jstablizer: 4
	kstablizer: 4
	lstablizer: 4
	ijstablizer: 3
	klstablizer: 4
	R.size = 1
	0
	S.size = 1
	0
	T.size = 1
	0
	(3 0 | 1 0)
for (3 1 | 1 0) need to compute:
	lambda_T: 2
	istablizer: 3
	jstablizer: 4
	kstablizer: 4
	lstablizer: 4
	ijstablizer: 3
	klstablizer: 4
	R.size = 1
	0
	S.size = 1
	0
	T.size = 1
	0
	(3 1 | 1 0)
for (3 0 | 1 1) need to compute:
	lambda_T: 2
	istablizer: 3
	jstablizer: 4
	kstablizer: 4
	lstablizer: 4
	ijstablizer: 3
	klstablizer: 4
	R.size = 1
	0
	S.size = 1
	0
	T.size = 1
	0
	(3 0 | 1 1)
for (3 1 | 1 1) need to compute:
	lambda_T: 2
	istablizer: 3
	jstablizer: 4
	kstablizer: 4
	lstablizer: 4
	ijstablizer: 3
	klstablizer: 4
	R.size = 1
	0
	S.size = 1
	0
	T.size = 1
	0
	(3 1 | 1 1)
for (0 0 | 2 3) need to compute:
	lambda_T: 2
	istablizer: 4
	jstablizer: 4
	kstablizer: 4
	lstablizer: 3
	ijstablizer: 4
	klstablizer: 3
	R.size = 1
	0
	S.size = 1
	0
	T.size = 1
	0
	(0 0 | 2 3)
for (3 0 | 2 0) need to compute:
	lambda_T: 2
	istablizer: 3
	jstablizer: 4
	kstablizer: 4
	lstablizer: 4
	ijstablizer: 3
	klstablizer: 4
	R.size = 1
	0
	S.size = 1
	0
	T.size = 1
	0
	(3 0 | 2 0)
for (1 0 | 2 3) need to compute:
	lambda_T: 2
	istablizer: 4
	jstablizer: 4
	kstablizer: 4
	lstablizer: 3
	ijstablizer: 4
	klstablizer: 3
	R.size = 1
	0
	S.size = 1
	0
	T.size = 1
	0
	(1 0 | 2 3)
for (3 1 | 2 0) need to compute:
	lambda_T: 2
	istablizer: 3
	jstablizer: 4
	kstablizer: 4
	lstablizer: 4
	ijstablizer: 3
	klstablizer: 4
	R.size = 1
	0
	S.size = 1
	0
	T.size = 1
	0
	(3 1 | 2 0)
for (3 0 | 2 1) need to compute:
	lambda_T: 2
	istablizer: 3
	jstablizer: 4
	kstablizer: 4
	lstablizer: 4
	ijstablizer: 3
	klstablizer: 4
	R.size = 1
	0
	S.size = 1
	0
	T.size = 1
	0
	(3 0 | 2 1)
for (1 1 | 2 3) need to compute:
	lambda_T: 2
	istablizer: 4
	jstablizer: 4
	kstablizer: 4
	lstablizer: 3
	ijstablizer: 4
	klstablizer: 3
	R.size = 1
	0
	S.size = 1
	0
	T.size = 1
	0
	(1 1 | 2 3)
for (3 1 | 2 1) need to compute:
	lambda_T: 2
	istablizer: 3
	jstablizer: 4
	kstablizer: 4
	lstablizer: 4
	ijstablizer: 3
	klstablizer: 4
	R.size = 1
	0
	S.size = 1
	0
	T.size = 1
	0
	(3 1 | 2 1)
for (2 3 | 2 0) need to compute:
	lambda_T: 2
	istablizer: 4
	jstablizer: 3
	kstablizer: 4
	lstablizer: 4
	ijstablizer: 3
	klstablizer: 4
	R.size = 1
	0
	S.size = 1
	0
	T.size = 1
	0
	(2 3 | 2 0)
for (3 0 | 2 2) need to compute:
	lambda_T: 2
	istablizer: 3
	jstablizer: 4
	kstablizer: 4
	lstablizer: 4
	ijstablizer: 3
	klstablizer: 4
	R.size = 1
	0
	S.size = 1
	0
	T.size = 1
	0
	(3 0 | 2 2)
for (2 3 | 2 1) need to compute:
	lambda_T: 2
	istablizer: 4
	jstablizer: 3
	kstablizer: 4
	lstablizer: 4
	ijstablizer: 3
	klstablizer: 4
	R.size = 1
	0
	S.size = 1
	0
	T.size = 1
	0
	(2 3 | 2 1)
for (3 1 | 2 2) need to compute:
	lambda_T: 2
	istablizer: 3
	jstablizer: 4
	kstablizer: 4
	lstablizer: 4
	ijstablizer: 3
	klstablizer: 4
	R.size = 1
	0
	S.size = 1
	0
	T.size = 1
	0
	(3 1 | 2 2)
for (2 3 | 2 2) need to compute:
	lambda_T: 2
	istablizer: 4
	jstablizer: 3
	kstablizer: 4
	lstablizer: 4
	ijstablizer: 3
	klstablizer: 4
	R.size = 1
	0
	S.size = 1
	0
	T.size = 1
	0
	(2 3 | 2 2)
for (3 3 | 0 0) need to compute:
	lambda_T: 2
	istablizer: 3
	jstablizer: 3
	kstablizer: 4
	lstablizer: 4
	ijstablizer: 3
	klstablizer: 4
	R.size = 2
	0
	1
	S.size = 1
	0
	T.size = 1
	0
	(3 3 | 0 0)
	(3 4 | 0 0)
for (3 0 | 3 0) need to compute:
	lambda_T: 2
	istablizer: 3
	jstablizer: 4
	kstablizer: 3
	lstablizer: 4
	ijstablizer: 3
	klstablizer: 3
	R.size = 1
	0
	S.size = 1
	0
	T.size = 2
	0
	1
	(3 0 | 3 0)
	(3 0 | 4 0)
for (3 3 | 1 0) need to compute:
	lambda_T: 2
	istablizer: 3
	jstablizer: 3
	kstablizer: 4
	lstablizer: 4
	ijstablizer: 3
	klstablizer: 4
	R.size = 2
	0
	1
	S.size = 1
	0
	T.size = 1
	0
	(3 3 | 1 0)
	(3 4 | 1 0)
for (3 1 | 3 0) need to compute:
	lambda_T: 2
	istablizer: 3
	jstablizer: 4
	kstablizer: 3
	lstablizer: 4
	ijstablizer: 3
	klstablizer: 3
	R.size = 1
	0
	S.size = 1
	0
	T.size = 2
	0
	1
	(3 1 | 3 0)
	(3 1 | 4 0)
for (3 3 | 1 1) need to compute:
	lambda_T: 2
	istablizer: 3
	jstablizer: 3
	kstablizer: 4
	lstablizer: 4
	ijstablizer: 3
	klstablizer: 4
	R.size = 2
	0
	1
	S.size = 1
	0
	T.size = 1
	0
	(3 3 | 1 1)
	(3 4 | 1 1)
for (3 1 | 3 1) need to compute:
	lambda_T: 2
	istablizer: 3
	jstablizer: 4
	kstablizer: 3
	lstablizer: 4
	ijstablizer: 3
	klstablizer: 3
	R.size = 1
	0
	S.size = 1
	0
	T.size = 2
	0
	1
	(3 1 | 3 1)
	(3 1 | 4 1)
for (3 3 | 2 0) need to compute:
	lambda_T: 2
	istablizer: 3
	jstablizer: 3
	kstablizer: 4
	lstablizer: 4
	ijstablizer: 3
	klstablizer: 4
	R.size = 2
	0
	1
	S.size = 1
	0
	T.size = 1
	0
	(3 3 | 2 0)
	(3 4 | 2 0)
for (3 0 | 2 3) need to compute:
	lambda_T: 2
	istablizer: 3
	jstablizer: 4
	kstablizer: 4
	lstablizer: 3
	ijstablizer: 3
	klstablizer: 3
	R.size = 1
	0
	S.size = 1
	0
	T.size = 2
	0
	1
	(3 0 | 2 3)
	(3 0 | 2 4)
for (3 3 | 2 1) need to compute:
	lambda_T: 2
	istablizer: 3
	jstablizer: 3
	kstablizer: 4
	lstablizer: 4
	ijstablizer: 3
	klstablizer: 4
	R.size = 2
	0
	1
	S.size = 1
	0
	T.size = 1
	0
	(3 3 | 2 1)
	(3 4 | 2 1)
for (3 1 | 2 3) need to compute:
	lambda_T: 2
	istablizer: 3
	jstablizer: 4
	kstablizer: 4
	lstablizer: 3
	ijstablizer: 3
	klstablizer: 3
	R.size = 1
	0
	S.size = 1
	0
	T.size = 2
	0
	1
	(3 1 | 2 3)
	(3 1 | 2 4)
for (3 3 | 2 2) need to compute:
	lambda_T: 2
	istablizer: 3
	jstablizer: 3
	kstablizer: 4
	lstablizer: 4
	ijstablizer: 3
	klstablizer: 4
	R.size = 2
	0
	1
	S.size = 1
	0
	T.size = 1
	0
	(3 3 | 2 2)
	(3 4 | 2 2)
for (2 3 | 2 3) need to compute:
	lambda_T: 2
	istablizer: 4
	jstablizer: 3
	kstablizer: 4
	lstablizer: 3
	ijstablizer: 3
	klstablizer: 3
	R.size = 1
	0
	S.size = 1
	0
	T.size = 2
	0
	1
	(2 3 | 2 3)
	(2 3 | 2 4)
for (3 3 | 3 0) need to compute:
	lambda_T: 2
	istablizer: 3
	jstablizer: 3
	kstablizer: 3
	lstablizer: 4
	ijstablizer: 3
	klstablizer: 3
	R.size = 2
	0
	1
	S.size = 1
	0
	T.size = 2
	0
	1
	(3 3 | 3 0)
	(3 3 | 4 0)
	(3 4 | 3 0)
	(3 4 | 4 0)
for (3 3 | 3 1) need to compute:
	lambda_T: 2
	istablizer: 3
	jstablizer: 3
	kstablizer: 3
	lstablizer: 4
	ijstablizer: 3
	klstablizer: 3
	R.size = 2
	0
	1
	S.size = 1
	0
	T.size = 2
	0
	1
	(3 3 | 3 1)
	(3 3 | 4 1)
	(3 4 | 3 1)
	(3 4 | 4 1)
for (3 3 | 2 3) need to compute:
	lambda_T: 2
	istablizer: 3
	jstablizer: 3
	kstablizer: 4
	lstablizer: 3
	ijstablizer: 3
	klstablizer: 3
	R.size = 2
	0
	1
	S.size = 1
	0
	T.size = 2
	0
	1
	(3 3 | 2 3)
	(3 3 | 2 4)
	(3 4 | 2 3)
	(3 4 | 2 4)
for (3 3 | 3 3) need to compute:
	lambda_T: 2
	istablizer: 3
	jstablizer: 3
	kstablizer: 3
	lstablizer: 3
	ijstablizer: 3
	klstablizer: 3
	R.size = 2
	0
	1
	S.size = 2
	0
	1
	T.size = 2
	0
	1
	(3 3 | 3 3)
	(3 3 | 3 4)
	(3 3 | 4 4)
	(3 3 | 4 3)
	(3 4 | 3 3)
	(3 4 | 3 4)
	(3 4 | 4 4)
	(3 4 | 4 3)
done

      Computed 138 non-zero integrals.

  ==> Iterations <==

                        Total Energy        Delta E      Density RMS

   @RHF iter   1:   -73.24094615960452   -1.86549e+01    0.00000e+00 
   @RHF iter   2:   -74.93094331791967   -1.69000e+00    4.01536e-01 
   @RHF iter   3:   -74.96444121374275   -3.34979e-02    5.78382e-02 
   @RHF iter   4:   -74.96573439545752   -1.29318e-03    9.58872e-03 
   @RHF iter   5:   -74.96587188382226   -1.37488e-04    3.64870e-03 
   @RHF iter   6:   -74.96589557405281   -2.36902e-05    1.42027e-03 
   @RHF iter   7:   -74.96590006797699   -4.49392e-06    6.09197e-04 
   @RHF iter   8:   -74.96590094208936   -8.74112e-07    2.64110e-04 
   @RHF iter   9:   -74.96590111330565   -1.71216e-07    1.15906e-04 
   @RHF iter  10:   -74.96590114691095   -3.36053e-08    5.10891e-05 
   @RHF iter  11:   -74.96590115351067   -6.59972e-09    2.25786e-05 
   @RHF iter  12:   -74.96590115480699   -1.29631e-09    9.99152e-06 
   @RHF iter  13:   -74.96590115506164   -2.54659e-10    4.42463e-06 
   @RHF iter  14:   -74.96590115511169   -5.00506e-11    1.96015e-06 
   @RHF iter  15:   -74.96590115512150   -9.80549e-12    8.68544e-07 
   @RHF iter  16:   -74.96590115512343   -1.93268e-12    3.84896e-07 
   @RHF iter  17:   -74.96590115512380   -3.69482e-13    1.70578e-07 
   @RHF iter  18:   -74.96590115512392   -1.13687e-13    7.55988e-08 
   @RHF iter  19:   -74.96590115512389    2.84217e-14    3.35055e-08 
   @RHF iter  20:   -74.96590115512390   -1.42109e-14    1.48498e-08 
   @RHF iter  21:   -74.96590115512390    0.00000e+00    6.58156e-09 
   @RHF iter  22:   -74.96590115512392   -1.42109e-14    2.91701e-09 
   @RHF iter  23:   -74.96590115512393   -1.42109e-14    1.29285e-09 
   @RHF iter  24:   -74.96590115512396   -2.84217e-14    5.73004e-10 
   @RHF iter  25:   -74.96590115512394    1.42109e-14    2.53962e-10 
   @RHF iter  26:   -74.96590115512392    2.84217e-14    1.12559e-10 

  ==> Post-Iterations <==

	Orbital Energies (a.u.)
	-----------------------

	Doubly Occupied:                                                      

	   1A1   -20.251613     2A1    -1.257571     1B2    -0.593796  
	   3A1    -0.459795     1B1    -0.392635  

	Virtual:                                                              

	   4A1     0.581821     2B2     0.692579  

	Final Occupation by Irrep:
	         A1    A2    B1    B2 
	DOCC [     3,    0,    1,    1 ]

  Energy converged.

  @RHF Final Energy:   -74.96590115512392

  ==> Properties <==

 OEPROP: One-electron properties/analyses.
  by Rob Parrish and Justin Turney.
  built on LIBMINTS.

 Dipole Moment: (a.u.)
     X:     0.0000      Y:     0.0000      Z:     0.6725     Total:     0.6725

 Dipole Moment: (Debye)
     X:     0.0000      Y:     0.0000      Z:     1.7094     Total:     1.7094


  Saving occupied orbitals to File 100.

*** tstop() called on mac10147 at Tue Jun 14 09:57:13 2011
	user time   =       1.61 seconds =       0.03 minutes
	system time =       0.27 seconds =       0.00 minutes
	total time  =          0 seconds =       0.00 minutes
    -Cartesian displacement SALCs per irrep:
    Irrep  #SALCs
    -----  ------
      0       3
      1       1
      2       2
      3       3

	Finite difference computation of gradient using 3-point formula
	Check for precision!
	Energy without displacment:  -74.9659011551
	Gradients are in mass-weighted, symmetry-adapted cartesians (in au).
 Coord      Energy(-)        Energy(+)        Force
    0    -74.9658988637   -74.9658994762    -0.0000306235
    1    -74.9658767470   -74.9658783502    -0.0000801600
    2    -74.9658862444   -74.9658845597     0.0000842339


			----------------------------------
			 OPTKING: for geometry optimizations  
			  - R.A. King,  Bethel University   
			------------------------------------

	Prevous internal coordinate definitions found.
	---Fragment 1 Geometry and Gradient---
	 O           0.0000000000        0.0000000000       -0.1345076524
	 H           0.0000000000        1.4322873891        1.0673670269
	 H           0.0000000000       -1.4322873891        1.0673670269
	             0.0000000000        0.0000000000       -0.0000306235
	             0.0000000000       -0.0000566817        0.0000595624
	             0.0000000000        0.0000566817        0.0000595624

	---Fragment 1 Intrafragment Coordinates---
	 * Coordinate *           * BOHR/RAD *       * ANG/DEG *
	 R(1,2)           =         1.869746	       0.989427
	 R(1,3)           =         1.869746	       0.989427
	 B(2,1,3)         =         1.745294	      99.997988

	Current energy   :       -74.9659011551

	Energy change for the previous step:
		Projected    :        -0.0000045680
		Actual       :        -0.0000057876
	Energy ratio large: Trust radius increased.


	Performing BFGS update with previous 4 gradient(s).
	Following RFO solution 0.
	Projected energy change by RFO approximation:        -0.0000000283

	Back-transformation to cartesian coordinates...
	Successfully converged to displaced geometry.

	---Internal Coordinate Step in ANG or DEG, aJ/ANG or AJ/DEG ---
	 ----------------------------------------------------------------------
	 Coordinate             Previous        Force       Change         New 
	 ----------             --------       ------       ------       ------
	 R(1,2)          =      0.989427     0.000199    -0.000013     0.989414
	 R(1,3)          =      0.989427     0.000199    -0.000013     0.989414
	 B(2,1,3)        =     99.997988     0.000008     0.029812   100.027800
	 ----------------------------------------------------------------------

	Convergence Check Cycle    5: (using internal coordinates in au)
	                    Actual        Tolerance     Converged?
	----------------------------------------------------------
	MAX Force           1.1e-04        3.0e-04         yes
	Energy Change      -5.8e-06        1.0e-06          no
	MAX Displacement    5.2e-04        1.2e-03         yes
	----------------------------------------------------------

	 **** Optimization is complete! ****

	            ****  Optimization Summary  ****
	----------------------------------------------------------------------------
	 Step         Energy             Delta(E)      MAX force    MAX Delta(q)  
	----------------------------------------------------------------------------
	   1    -74.964662543200    -74.964662543200    2.30e-02     2.30e-02
	   2    -74.965442673200     -0.000780130000    1.41e-02     1.41e-02
	   3    -74.965869186200     -0.000426513000    3.00e-03     3.00e-03
	   4    -74.965895367500     -0.000026181300    1.36e-03     1.36e-03
	   5    -74.965901155100     -0.000005787600    1.11e-04     1.11e-04
	----------------------------------------------------------------------

	Writing optimization data to binary file.
	Final energy is    -74.9659011551000
	Final (previous) structure:
	Cartesian Geometry (au)
	    O     0.0000000000   0.0000000000  -0.1345076524
	    H     0.0000000000   1.4322873891   1.0673670269
	    H     0.0000000000  -1.4322873891   1.0673670269
	Saving final (previous) structure.
			--------------------------
			 OPTKING Finished Execution 
			--------------------------

*** PSI4 exiting successfully, buy a developer a beer!
