    -----------------------------------------------------------------------
          PSI4: An Open-Source Ab Initio Electronic Structure Package
                              PSI 4.0.0-alpha Driver
    T. D. Crawford, C. D. Sherrill, E. F. Valeev, J. T. Fermann, R. A. King,
    M. L. Leininger, S. T. Brown, C. L. Janssen, E. T. Seidl, J. P. Kenny,
    and W. D. Allen, J. Comput. Chem. 28, 1610-1616 (2007)

                         Additional Contributions by
    Francesco Evangelista, Andrew Simmonett, Justin Turney, Jeremiah Wilke
    -----------------------------------------------------------------------


    Using LocalCommunicator (Number of processes = 1)

    Memory level set to 256.000 MB

  ==> Input File <==

--------------------------------------------------------------------------
#! SCF STO-3G geometry optimzation, with Z-matrix input, by finite-differences

# Same test case as scf5
nucenergy = 8.9064890670                            #TEST
refenergy = -74.965901192                           #TEST

molecule h2o {
     O
     H 1 1.0
     H 1 1.0 2 104.5
}

set globals {
  diis false
  basis sto-3g
  e_converge 10
  d_converge 10
}

set findif {
  points 3
}

cycle = 0
returnValue = 0
thisenergy = 0.0

# initialize global molecule
h2o.update_geometry()

# optimization loop
while (cycle < 20 and returnValue != PsiReturnType.EndLoop):
    # generate geometry list for finite differences (undisplaced geometry is last)
    geoms = fd_geoms_1_0()
    #initialize vector of correct length
    E = list()
    # compute energy for each geometry
    for i in range(len(geoms)):
        h2o.set_geometry(geoms[i])
        E.append(energy('scf'))
    thisenergy = E[-1]
    # pass energies to function to compute gradient
    fd_grad_1_0(E)
    #take optimization step
    returnValue = optking()
    cycle = cycle + 1

# if you want to print energies from python
#print 'Energies\n'
#for i in range(len(geoms)):
#    print '{0:5} {1:20.10f}\n'.format(i,E[i])

compare_values(nucenergy, h2o.nuclear_repulsion_energy(), 3, "Nuclear repulsion energy")    #TEST
compare_values(refenergy, thisenergy, 3, "Reference energy")                                #TEST

clean()

--------------------------------------------------------------------------
	Using finite-differences of energies to determine gradients.
	Generating geometries for use with 3-point formula.
	Displacement size will be 5.00e-03.
	Number of atoms is 3.
	Number of SALC's is 2.
	irrep = 0, ncomponent = 3
		0: atom 0, direction 2, coef 0.334537
		1: atom 1, direction 2, coef -0.666365
		2: atom 2, direction 2, coef -0.666365
	irrep = 0, ncomponent = 2
		0: atom 1, direction 1, coef 0.707107
		1: atom 2, direction 1, coef -0.707107
	Number of displacements (including reference) is 5.

*** tstart() called on mac10147
*** at Thu Jun 16 14:12:34 2011

	There are an even number of electrons - assuming singlet.
	Specify the multiplicity with the MULTP option in the
	input if this is incorrect


         ---------------------------------------------------------
                                   SCF
            by Justin Turney, Rob Parrish, and Andy Simmonnett
                              RHF Reference
                        1 Threads,    256 MiB Core
         ---------------------------------------------------------

  ==> Geometry <==

    Molecular point group: c2v

    Geometry (in Angstrom), charge = 0, multiplicity = 1:

       Center              X                  Y                   Z       
    ------------   -----------------  -----------------  -----------------
           O          0.000000000000     0.000000000000    -0.068737541067
           H          0.000000000000     0.790689573744     0.545457329170
           H          0.000000000000    -0.790689573744     0.545457329170

    Number of unique atoms: 2

    Atoms equivalency:
       unique atom 0: 0 
       unique atom 1: 1 2 

  Running in c2v symmetry.

  Nuclear repulsion =    8.791217360265589

  Charge       = 0
  Multiplicity = 1
  Electrons    = 10
  Nalpha       = 5
  Nbeta        = 5

  ==> Algorithm <==

  SCF Algorithm Type is PK.
  DIIS disabled.
  MOM disabled.
  Guess Type is CORE.
  Energy threshold   = 1.00e-10
  Density threshold  = 1.00e-10
  Integral threshold = 0.00e+00

  ==> Primary Basis: STO-3G <==

  Basis Set
    Number of shells: 5
    Number of basis function: 7
    Number of Cartesian functions: 7
    Spherical Harmonics?: true
    Max angular momentum: 1

  ==> Pre-Iterations <==

  Minimum eigenvalue in the overlap matrix is 3.7105722993E-01.
  Using Symmetric Orthogonalization.
  SCF Guess: Core (One-Electron) Hamiltonian.

  Initial RHF energy:   -54.63765013812002

   -------------------------------------------------------
    Irrep   Nso     Nmo     Nalpha   Nbeta   Ndocc  Nsocc
   -------------------------------------------------------
     A1         4       4       3       3       3       0
     A2         0       0       0       0       0       0
     B1         1       1       1       1       1       0
     B2         2       2       1       1       1       0
   -------------------------------------------------------
    Total       7       7       5       5       5       0
   -------------------------------------------------------

  ==> Integral Setup <==

 MINTS: Wrapper to libmints.
   by Justin Turney

   Calculation information:
      Number of atoms:                   3
      Number of AO shells:               5
      Number of SO shells:               4
      Number of primitives:             15
      Number of atomic orbitals:         7
      Number of basis functions:         7

      Number of irreps:                  4
      Number of functions per irrep: [   4    0    1    2 ]

      Computing integrals...done

      Computed 138 non-zero integrals.

  ==> Iterations <==

                        Total Energy        Delta E      Density RMS

   @RHF iter   1:   -73.25324851236329   -1.86156e+01   0.00000e+00 
   @RHF iter   2:   -74.93065163215209   -1.67740e+00   3.98388e-01 
   @RHF iter   3:   -74.96313833119679   -3.24867e-02   5.65433e-02 
   @RHF iter   4:   -74.96447363515051   -1.33530e-03   9.75994e-03 
   @RHF iter   5:   -74.96462988757848   -1.56252e-04   3.85886e-03 
   @RHF iter   6:   -74.96465812352757   -2.82359e-05   1.54585e-03 
   @RHF iter   7:   -74.96466363620988   -5.51268e-06   6.74214e-04 
   @RHF iter   8:   -74.96466473388836   -1.09768e-06   2.96429e-04 
   @RHF iter   9:   -74.96466495364956   -2.19761e-07   1.31682e-04 
   @RHF iter  10:   -74.96466499771677   -4.40672e-08   5.87107e-05 
   @RHF iter  11:   -74.96466500655730   -8.84053e-09   2.62348e-05 
   @RHF iter  12:   -74.96466500833108   -1.77378e-09   1.17360e-05 
   @RHF iter  13:   -74.96466500868696   -3.55882e-10   5.25323e-06 
   @RHF iter  14:   -74.96466500875839   -7.14238e-11   2.35221e-06 
   @RHF iter  15:   -74.96466500877273   -1.43388e-11   1.05343e-06 
   @RHF iter  16:   -74.96466500877557   -2.84217e-12   4.71818e-07 
   @RHF iter  17:   -74.96466500877618   -6.11067e-13   2.11333e-07 
   @RHF iter  18:   -74.96466500877627   -8.52651e-14   9.46615e-08 
   @RHF iter  19:   -74.96466500877629   -2.84217e-14   4.24020e-08 
   @RHF iter  20:   -74.96466500877631   -1.42109e-14   1.89934e-08 
   @RHF iter  21:   -74.96466500877634   -2.84217e-14   8.50790e-09 
   @RHF iter  22:   -74.96466500877635   -1.42109e-14   3.81103e-09 
   @RHF iter  23:   -74.96466500877631   4.26326e-14   1.70711e-09 
   @RHF iter  24:   -74.96466500877634   -2.84217e-14   7.64687e-10 
   @RHF iter  25:   -74.96466500877631   2.84217e-14   3.42535e-10 
   @RHF iter  26:   -74.96466500877632   -1.42109e-14   1.53437e-10 

  ==> Post-Iterations <==

	Orbital Energies (a.u.)
	-----------------------

	Doubly Occupied:                                                      

	   1A1   -20.247687     2A1    -1.247426     1B2    -0.594971  
	   3A1    -0.448166     1B1    -0.389044  

	Virtual:                                                              

	   4A1     0.563349     2B2     0.691150  

	Final Occupation by Irrep:
	         A1    A2    B1    B2 
	DOCC [     3,    0,    1,    1 ]

  Energy converged.

  @RHF Final Energy:   -74.96466500877632

  ==> Properties <==

 OEPROP: One-electron properties/analyses.
  by Rob Parrish and Justin Turney.
  built on LIBMINTS.

 Dipole Moment: (a.u.)
     X:     0.0000      Y:     0.0000      Z:     0.6564     Total:     0.6564

 Dipole Moment: (Debye)
     X:     0.0000      Y:     0.0000      Z:     1.6684     Total:     1.6684


  Saving occupied orbitals to File 100.

*** tstop() called on mac10147 at Thu Jun 16 14:12:34 2011
	user time   =       0.06 seconds =       0.00 minutes
	system time =       0.02 seconds =       0.00 minutes
	total time  =          0 seconds =       0.00 minutes

*** tstart() called on mac10147
*** at Thu Jun 16 14:12:34 2011

	There are an even number of electrons - assuming singlet.
	Specify the multiplicity with the MULTP option in the
	input if this is incorrect


         ---------------------------------------------------------
                                   SCF
            by Justin Turney, Rob Parrish, and Andy Simmonnett
                              RHF Reference
                        1 Threads,    256 MiB Core
         ---------------------------------------------------------

  ==> Geometry <==

    Molecular point group: c2v

    Geometry (in Angstrom), charge = 0, multiplicity = 1:

       Center              X                  Y                   Z       
    ------------   -----------------  -----------------  -----------------
           O          0.000000000000     0.000000000000    -0.068294897553
           H          0.000000000000     0.790689573744     0.541944792278
           H          0.000000000000    -0.790689573744     0.541944792278

    Number of unique atoms: 2

    Atoms equivalency:
       unique atom 0: 0 
       unique atom 1: 1 2 

  Running in c2v symmetry.

  Nuclear repulsion =    8.811719164003161

  Charge       = 0
  Multiplicity = 1
  Electrons    = 10
  Nalpha       = 5
  Nbeta        = 5

  ==> Algorithm <==

  SCF Algorithm Type is PK.
  DIIS disabled.
  MOM disabled.
  Guess Type is CORE.
  Energy threshold   = 1.00e-10
  Density threshold  = 1.00e-10
  Integral threshold = 0.00e+00

  ==> Primary Basis: STO-3G <==

  Basis Set
    Number of shells: 5
    Number of basis function: 7
    Number of Cartesian functions: 7
    Spherical Harmonics?: true
    Max angular momentum: 1

  ==> Pre-Iterations <==

  Minimum eigenvalue in the overlap matrix is 3.6951295202E-01.
  Using Symmetric Orthogonalization.
  SCF Guess: Core (One-Electron) Hamiltonian.

  Initial RHF energy:   -54.63086725527602

   -------------------------------------------------------
    Irrep   Nso     Nmo     Nalpha   Nbeta   Ndocc  Nsocc
   -------------------------------------------------------
     A1         4       4       3       3       3       0
     A2         0       0       0       0       0       0
     B1         1       1       1       1       1       0
     B2         2       2       1       1       1       0
   -------------------------------------------------------
    Total       7       7       5       5       5       0
   -------------------------------------------------------

  ==> Integral Setup <==

 MINTS: Wrapper to libmints.
   by Justin Turney

   Calculation information:
      Number of atoms:                   3
      Number of AO shells:               5
      Number of SO shells:               4
      Number of primitives:             15
      Number of atomic orbitals:         7
      Number of basis functions:         7

      Number of irreps:                  4
      Number of functions per irrep: [   4    0    1    2 ]

      Computing integrals...done

      Computed 138 non-zero integrals.

  ==> Iterations <==

                        Total Energy        Delta E      Density RMS

   @RHF iter   1:   -73.25277197439027   -1.86219e+01   0.00000e+00 
   @RHF iter   2:   -74.93231814275244   -1.67955e+00   3.98372e-01 
   @RHF iter   3:   -74.96318819834721   -3.08701e-02   5.51080e-02 
   @RHF iter   4:   -74.96446551784355   -1.27732e-03   9.61453e-03 
   @RHF iter   5:   -74.96461772665150   -1.52209e-04   3.81256e-03 
   @RHF iter   6:   -74.96464524925433   -2.75226e-05   1.53159e-03 
   @RHF iter   7:   -74.96465060896158   -5.35971e-06   6.66834e-04 
   @RHF iter   8:   -74.96465167295949   -1.06400e-06   2.92835e-04 
   @RHF iter   9:   -74.96465188532058   -2.12361e-07   1.29887e-04 
   @RHF iter  10:   -74.96465192777214   -4.24516e-08   5.78226e-05 
   @RHF iter  11:   -74.96465193626220   -8.49006e-09   2.57981e-05 
   @RHF iter  12:   -74.96465193796037   -1.69817e-09   1.15228e-05 
   @RHF iter  13:   -74.96465193830005   -3.39682e-10   5.14982e-06 
   @RHF iter  14:   -74.96465193836801   -6.79563e-11   2.30233e-06 
   @RHF iter  15:   -74.96465193838162   -1.36140e-11   1.02949e-06 
   @RHF iter  16:   -74.96465193838432   -2.70006e-12   4.60384e-07 
   @RHF iter  17:   -74.96465193838486   -5.40012e-13   2.05892e-07 
   @RHF iter  18:   -74.96465193838497   -1.13687e-13   9.20817e-08 
   @RHF iter  19:   -74.96465193838503   -5.68434e-14   4.11825e-08 
   @RHF iter  20:   -74.96465193838497   5.68434e-14   1.84186e-08 
   @RHF iter  21:   -74.96465193838502   -4.26326e-14   8.23764e-09 
   @RHF iter  22:   -74.96465193838497   4.26326e-14   3.68426e-09 
   @RHF iter  23:   -74.96465193838503   -5.68434e-14   1.64778e-09 
   @RHF iter  24:   -74.96465193838497   5.68434e-14   7.36964e-10 
   @RHF iter  25:   -74.96465193838503   -5.68434e-14   3.29604e-10 
   @RHF iter  26:   -74.96465193838502   1.42109e-14   1.47416e-10 

  ==> Post-Iterations <==

	Orbital Energies (a.u.)
	-----------------------

	Doubly Occupied:                                                      

	   1A1   -20.246852     2A1    -1.248122     1B2    -0.596731  
	   3A1    -0.447601     1B1    -0.388868  

	Virtual:                                                              

	   4A1     0.564953     2B2     0.694868  

	Final Occupation by Irrep:
	         A1    A2    B1    B2 
	DOCC [     3,    0,    1,    1 ]

  Energy converged.

  @RHF Final Energy:   -74.96465193838502

  ==> Properties <==

 OEPROP: One-electron properties/analyses.
  by Rob Parrish and Justin Turney.
  built on LIBMINTS.

 Dipole Moment: (a.u.)
     X:     0.0000      Y:     0.0000      Z:     0.6569     Total:     0.6569

 Dipole Moment: (Debye)
     X:     0.0000      Y:     0.0000      Z:     1.6696     Total:     1.6696


  Saving occupied orbitals to File 100.

*** tstop() called on mac10147 at Thu Jun 16 14:12:34 2011
	user time   =       0.10 seconds =       0.00 minutes
	system time =       0.02 seconds =       0.00 minutes
	total time  =          0 seconds =       0.00 minutes

*** tstart() called on mac10147
*** at Thu Jun 16 14:12:34 2011

	There are an even number of electrons - assuming singlet.
	Specify the multiplicity with the MULTP option in the
	input if this is incorrect


         ---------------------------------------------------------
                                   SCF
            by Justin Turney, Rob Parrish, and Andy Simmonnett
                              RHF Reference
                        1 Threads,    256 MiB Core
         ---------------------------------------------------------

  ==> Geometry <==

    Molecular point group: c2v

    Geometry (in Angstrom), charge = 0, multiplicity = 1:

       Center              X                  Y                   Z       
    ------------   -----------------  -----------------  -----------------
           O          0.000000000000     0.000000000000    -0.068516219310
           H          0.000000000000     0.788825926977     0.543701060724
           H          0.000000000000    -0.788825926977     0.543701060724

    Number of unique atoms: 2

    Atoms equivalency:
       unique atom 0: 0 
       unique atom 1: 1 2 

  Running in c2v symmetry.

  Nuclear repulsion =    8.814746104065893

  Charge       = 0
  Multiplicity = 1
  Electrons    = 10
  Nalpha       = 5
  Nbeta        = 5

  ==> Algorithm <==

  SCF Algorithm Type is PK.
  DIIS disabled.
  MOM disabled.
  Guess Type is CORE.
  Energy threshold   = 1.00e-10
  Density threshold  = 1.00e-10
  Integral threshold = 0.00e+00

  ==> Primary Basis: STO-3G <==

  Basis Set
    Number of shells: 5
    Number of basis function: 7
    Number of Cartesian functions: 7
    Spherical Harmonics?: true
    Max angular momentum: 1

  ==> Pre-Iterations <==

  Minimum eigenvalue in the overlap matrix is 3.6930923948E-01.
  Using Symmetric Orthogonalization.
  SCF Guess: Core (One-Electron) Hamiltonian.

  Initial RHF energy:   -54.62913703701524

   -------------------------------------------------------
    Irrep   Nso     Nmo     Nalpha   Nbeta   Ndocc  Nsocc
   -------------------------------------------------------
     A1         4       4       3       3       3       0
     A2         0       0       0       0       0       0
     B1         1       1       1       1       1       0
     B2         2       2       1       1       1       0
   -------------------------------------------------------
    Total       7       7       5       5       5       0
   -------------------------------------------------------

  ==> Integral Setup <==

 MINTS: Wrapper to libmints.
   by Justin Turney

   Calculation information:
      Number of atoms:                   3
      Number of AO shells:               5
      Number of SO shells:               4
      Number of primitives:             15
      Number of atomic orbitals:         7
      Number of basis functions:         7

      Number of irreps:                  4
      Number of functions per irrep: [   4    0    1    2 ]

      Computing integrals...done

      Computed 138 non-zero integrals.

  ==> Iterations <==

                        Total Energy        Delta E      Density RMS

   @RHF iter   1:   -73.25216797318667   -1.86230e+01   0.00000e+00 
   @RHF iter   2:   -74.93213551418403   -1.67997e+00   3.98553e-01 
   @RHF iter   3:   -74.96332378677170   -3.11883e-02   5.54136e-02 
   @RHF iter   4:   -74.96460773575431   -1.28395e-03   9.62701e-03 
   @RHF iter   5:   -74.96475945097225   -1.51715e-04   3.80728e-03 
   @RHF iter   6:   -74.96478680612942   -2.73552e-05   1.52625e-03 
   @RHF iter   7:   -74.96479212597711   -5.31985e-06   6.64013e-04 
   @RHF iter   8:   -74.96479318100273   -1.05503e-06   2.91397e-04 
   @RHF iter   9:   -74.96479339138159   -2.10379e-07   1.29180e-04 
   @RHF iter  10:   -74.96479343339972   -4.20181e-08   5.74800e-05 
   @RHF iter  11:   -74.96479344179572   -8.39600e-09   2.56334e-05 
   @RHF iter  12:   -74.96479344347368   -1.67796e-09   1.14441e-05 
   @RHF iter  13:   -74.96479344380900   -3.35319e-10   5.11237e-06 
   @RHF iter  14:   -74.96479344387600   -6.70042e-11   2.28459e-06 
   @RHF iter  15:   -74.96479344388949   -1.34861e-11   1.02111e-06 
   @RHF iter  16:   -74.96479344389212   -2.62901e-12   4.56435e-07 
   @RHF iter  17:   -74.96479344389260   -4.83169e-13   2.04037e-07 
   @RHF iter  18:   -74.96479344389273   -1.27898e-13   9.12121e-08 
   @RHF iter  19:   -74.96479344389279   -5.68434e-14   4.07758e-08 
   @RHF iter  20:   -74.96479344389276   2.84217e-14   1.82287e-08 
   @RHF iter  21:   -74.96479344389277   -1.42109e-14   8.14917e-09 
   @RHF iter  22:   -74.96479344389275   2.84217e-14   3.64310e-09 
   @RHF iter  23:   -74.96479344389282   -7.10543e-14   1.62865e-09 
   @RHF iter  24:   -74.96479344389275   7.10543e-14   7.28093e-10 
   @RHF iter  25:   -74.96479344389276   -1.42109e-14   3.25497e-10 
   @RHF iter  26:   -74.96479344389276   0.00000e+00   1.45513e-10 

  ==> Post-Iterations <==

	Orbital Energies (a.u.)
	-----------------------

	Doubly Occupied:                                                      

	   1A1   -20.247250     2A1    -1.248586     1B2    -0.596391  
	   3A1    -0.448375     1B1    -0.389118  

	Virtual:                                                              

	   4A1     0.565789     2B2     0.694282  

	Final Occupation by Irrep:
	         A1    A2    B1    B2 
	DOCC [     3,    0,    1,    1 ]

  Energy converged.

  @RHF Final Energy:   -74.96479344389276

  ==> Properties <==

 OEPROP: One-electron properties/analyses.
  by Rob Parrish and Justin Turney.
  built on LIBMINTS.

 Dipole Moment: (a.u.)
     X:     0.0000      Y:     0.0000      Z:     0.6577     Total:     0.6577

 Dipole Moment: (Debye)
     X:     0.0000      Y:     0.0000      Z:     1.6717     Total:     1.6717


  Saving occupied orbitals to File 100.

*** tstop() called on mac10147 at Thu Jun 16 14:12:34 2011
	user time   =       0.14 seconds =       0.00 minutes
	system time =       0.03 seconds =       0.00 minutes
	total time  =          0 seconds =       0.00 minutes

*** tstart() called on mac10147
*** at Thu Jun 16 14:12:34 2011

	There are an even number of electrons - assuming singlet.
	Specify the multiplicity with the MULTP option in the
	input if this is incorrect


         ---------------------------------------------------------
                                   SCF
            by Justin Turney, Rob Parrish, and Andy Simmonnett
                              RHF Reference
                        1 Threads,    256 MiB Core
         ---------------------------------------------------------

  ==> Geometry <==

    Molecular point group: c2v

    Geometry (in Angstrom), charge = 0, multiplicity = 1:

       Center              X                  Y                   Z       
    ------------   -----------------  -----------------  -----------------
           O          0.000000000000     0.000000000000    -0.068516219310
           H          0.000000000000     0.792553220511     0.543701060724
           H          0.000000000000    -0.792553220511     0.543701060724

    Number of unique atoms: 2

    Atoms equivalency:
       unique atom 0: 0 
       unique atom 1: 1 2 

  Running in c2v symmetry.

  Nuclear repulsion =    8.788215765827671

  Charge       = 0
  Multiplicity = 1
  Electrons    = 10
  Nalpha       = 5
  Nbeta        = 5

  ==> Algorithm <==

  SCF Algorithm Type is PK.
  DIIS disabled.
  MOM disabled.
  Guess Type is CORE.
  Energy threshold   = 1.00e-10
  Density threshold  = 1.00e-10
  Integral threshold = 0.00e+00

  ==> Primary Basis: STO-3G <==

  Basis Set
    Number of shells: 5
    Number of basis function: 7
    Number of Cartesian functions: 7
    Spherical Harmonics?: true
    Max angular momentum: 1

  ==> Pre-Iterations <==

  Minimum eigenvalue in the overlap matrix is 3.7125949335E-01.
  Using Symmetric Orthogonalization.
  SCF Guess: Core (One-Electron) Hamiltonian.

  Initial RHF energy:   -54.63936652405509

   -------------------------------------------------------
    Irrep   Nso     Nmo     Nalpha   Nbeta   Ndocc  Nsocc
   -------------------------------------------------------
     A1         4       4       3       3       3       0
     A2         0       0       0       0       0       0
     B1         1       1       1       1       1       0
     B2         2       2       1       1       1       0
   -------------------------------------------------------
    Total       7       7       5       5       5       0
   -------------------------------------------------------

  ==> Integral Setup <==

 MINTS: Wrapper to libmints.
   by Justin Turney

   Calculation information:
      Number of atoms:                   3
      Number of AO shells:               5
      Number of SO shells:               4
      Number of primitives:             15
      Number of atomic orbitals:         7
      Number of basis functions:         7

      Number of irreps:                  4
      Number of functions per irrep: [   4    0    1    2 ]

      Computing integrals...done

      Computed 138 non-zero integrals.

  ==> Iterations <==

                        Total Energy        Delta E      Density RMS

   @RHF iter   1:   -73.25385038438209   -1.86145e+01   0.00000e+00 
   @RHF iter   2:   -74.93083766335180   -1.67699e+00   3.98209e-01 
   @RHF iter   3:   -74.96299987098412   -3.21622e-02   5.62377e-02 
   @RHF iter   4:   -74.96432833043535   -1.32846e-03   9.74727e-03 
   @RHF iter   5:   -74.96448511110945   -1.56781e-04   3.86442e-03 
   @RHF iter   6:   -74.96451352441179   -2.84133e-05   1.55140e-03 
   @RHF iter   7:   -74.96451907921890   -5.55481e-06   6.77128e-04 
   @RHF iter   8:   -74.96452018637892   -1.10716e-06   2.97912e-04 
   @RHF iter   9:   -74.96452040823664   -2.21858e-07   1.32410e-04 
   @RHF iter  10:   -74.96452045276294   -4.45263e-08   5.90635e-05 
   @RHF iter  11:   -74.96452046170327   -8.94033e-09   2.64045e-05 
   @RHF iter  12:   -74.96452046349862   -1.79534e-09   1.18171e-05 
   @RHF iter  13:   -74.96452046385913   -3.60515e-10   5.29186e-06 
   @RHF iter  14:   -74.96452046393158   -7.24469e-11   2.37053e-06 
   @RHF iter  15:   -74.96452046394612   -1.45377e-11   1.06209e-06 
   @RHF iter  16:   -74.96452046394907   -2.95586e-12   4.75902e-07 
   @RHF iter  17:   -74.96452046394960   -5.25802e-13   2.13254e-07 
   @RHF iter  18:   -74.96452046394977   -1.70530e-13   9.55631e-08 
   @RHF iter  19:   -74.96452046394973   4.26326e-14   4.28242e-08 
   @RHF iter  20:   -74.96452046394977   -4.26326e-14   1.91908e-08 
   @RHF iter  21:   -74.96452046394974   2.84217e-14   8.59999e-09 
   @RHF iter  22:   -74.96452046394975   -1.42109e-14   3.85394e-09 
   @RHF iter  23:   -74.96452046394974   1.42109e-14   1.72707e-09 
   @RHF iter  24:   -74.96452046394977   -2.84217e-14   7.73961e-10 
   @RHF iter  25:   -74.96452046394975   1.42109e-14   3.46837e-10 
   @RHF iter  26:   -74.96452046394981   -5.68434e-14   1.55429e-10 

  ==> Post-Iterations <==

	Orbital Energies (a.u.)
	-----------------------

	Doubly Occupied:                                                      

	   1A1   -20.247291     2A1    -1.246966     1B2    -0.595310  
	   3A1    -0.447394     1B1    -0.388796  

	Virtual:                                                              

	   4A1     0.562516     2B2     0.691733  

	Final Occupation by Irrep:
	         A1    A2    B1    B2 
	DOCC [     3,    0,    1,    1 ]

  Energy converged.

  @RHF Final Energy:   -74.96452046394981

  ==> Properties <==

 OEPROP: One-electron properties/analyses.
  by Rob Parrish and Justin Turney.
  built on LIBMINTS.

 Dipole Moment: (a.u.)
     X:     0.0000      Y:    -0.0000      Z:     0.6556     Total:     0.6556

 Dipole Moment: (Debye)
     X:     0.0000      Y:    -0.0000      Z:     1.6663     Total:     1.6663


  Saving occupied orbitals to File 100.

*** tstop() called on mac10147 at Thu Jun 16 14:12:34 2011
	user time   =       0.18 seconds =       0.00 minutes
	system time =       0.04 seconds =       0.00 minutes
	total time  =          0 seconds =       0.00 minutes

*** tstart() called on mac10147
*** at Thu Jun 16 14:12:34 2011

	There are an even number of electrons - assuming singlet.
	Specify the multiplicity with the MULTP option in the
	input if this is incorrect


         ---------------------------------------------------------
                                   SCF
            by Justin Turney, Rob Parrish, and Andy Simmonnett
                              RHF Reference
                        1 Threads,    256 MiB Core
         ---------------------------------------------------------

  ==> Geometry <==

    Molecular point group: c2v

    Geometry (in Angstrom), charge = 0, multiplicity = 1:

       Center              X                  Y                   Z       
    ------------   -----------------  -----------------  -----------------
           O          0.000000000000     0.000000000000    -0.068516219310
           H          0.000000000000     0.790689573744     0.543701060724
           H          0.000000000000    -0.790689573744     0.543701060724

    Number of unique atoms: 2

    Atoms equivalency:
       unique atom 0: 0 
       unique atom 1: 1 2 

  Running in c2v symmetry.

  Nuclear repulsion =    8.801466202085710

  Charge       = 0
  Multiplicity = 1
  Electrons    = 10
  Nalpha       = 5
  Nbeta        = 5

  ==> Algorithm <==

  SCF Algorithm Type is PK.
  DIIS disabled.
  MOM disabled.
  Guess Type is CORE.
  Energy threshold   = 1.00e-10
  Density threshold  = 1.00e-10
  Integral threshold = 0.00e+00

  ==> Primary Basis: STO-3G <==

  Basis Set
    Number of shells: 5
    Number of basis function: 7
    Number of Cartesian functions: 7
    Spherical Harmonics?: true
    Max angular momentum: 1

  ==> Pre-Iterations <==

  Minimum eigenvalue in the overlap matrix is 3.7028395658E-01.
  Using Symmetric Orthogonalization.
  SCF Guess: Core (One-Electron) Hamiltonian.

  Initial RHF energy:   -54.63426058898565

   -------------------------------------------------------
    Irrep   Nso     Nmo     Nalpha   Nbeta   Ndocc  Nsocc
   -------------------------------------------------------
     A1         4       4       3       3       3       0
     A2         0       0       0       0       0       0
     B1         1       1       1       1       1       0
     B2         2       2       1       1       1       0
   -------------------------------------------------------
    Total       7       7       5       5       5       0
   -------------------------------------------------------

  ==> Integral Setup <==

 MINTS: Wrapper to libmints.
   by Justin Turney

   Calculation information:
      Number of atoms:                   3
      Number of AO shells:               5
      Number of SO shells:               4
      Number of primitives:             15
      Number of atomic orbitals:         7
      Number of basis functions:         7

      Number of irreps:                  4
      Number of functions per irrep: [   4    0    1    2 ]

      Computing integrals...done

      Computed 138 non-zero integrals.

  ==> Iterations <==

                        Total Energy        Delta E      Density RMS

   @RHF iter   1:   -73.25301165277945   -1.86188e+01   0.00000e+00 
   @RHF iter   2:   -74.93149654949069   -1.67848e+00   3.98379e-01 
   @RHF iter   3:   -74.96316771732830   -3.16712e-02   5.58234e-02 
   @RHF iter   4:   -74.96447365626071   -1.30594e-03   9.68664e-03 
   @RHF iter   5:   -74.96462787792542   -1.54222e-04   3.83566e-03 
   @RHF iter   6:   -74.96465575637373   -2.78784e-05   1.53875e-03 
   @RHF iter   7:   -74.96466119228383   -5.43591e-06   6.70528e-04 
   @RHF iter   8:   -74.96466227303124   -1.08075e-06   2.94632e-04 
   @RHF iter   9:   -74.96466248906674   -2.16036e-07   1.30783e-04 
   @RHF iter  10:   -74.96466253231938   -4.32526e-08   5.82654e-05 
   @RHF iter  11:   -74.96466254098301   -8.66363e-09   2.60156e-05 
   @RHF iter  12:   -74.96466254271859   -1.73557e-09   1.16289e-05 
   @RHF iter  13:   -74.96466254306630   -3.47711e-10   5.20124e-06 
   @RHF iter  14:   -74.96466254313593   -6.96332e-11   2.32711e-06 
   @RHF iter  15:   -74.96466254314990   -1.39693e-11   1.04137e-06 
   @RHF iter  16:   -74.96466254315267   -2.77112e-12   4.66056e-07 
   @RHF iter  17:   -74.96466254315324   -5.68434e-13   2.08590e-07 
   @RHF iter  18:   -74.96466254315335   -1.13687e-13   9.33599e-08 
   @RHF iter  19:   -74.96466254315339   -4.26326e-14   4.17864e-08 
   @RHF iter  20:   -74.96466254315334   5.68434e-14   1.87031e-08 
   @RHF iter  21:   -74.96466254315337   -2.84217e-14   8.37132e-09 
   @RHF iter  22:   -74.96466254315337   0.00000e+00   3.74693e-09 
   @RHF iter  23:   -74.96466254315335   1.42109e-14   1.67709e-09 
   @RHF iter  24:   -74.96466254315337   -1.42109e-14   7.50654e-10 
   @RHF iter  25:   -74.96466254315341   -4.26326e-14   3.35986e-10 
   @RHF iter  26:   -74.96466254315339   1.42109e-14   1.50385e-10 

  ==> Post-Iterations <==

	Orbital Energies (a.u.)
	-----------------------

	Doubly Occupied:                                                      

	   1A1   -20.247270     2A1    -1.247775     1B2    -0.595851  
	   3A1    -0.447884     1B1    -0.388956  

	Virtual:                                                              

	   4A1     0.564152     2B2     0.693007  

	Final Occupation by Irrep:
	         A1    A2    B1    B2 
	DOCC [     3,    0,    1,    1 ]

  Energy converged.

  @RHF Final Energy:   -74.96466254315339

  ==> Properties <==

 OEPROP: One-electron properties/analyses.
  by Rob Parrish and Justin Turney.
  built on LIBMINTS.

 Dipole Moment: (a.u.)
     X:     0.0000      Y:     0.0000      Z:     0.6566     Total:     0.6566

 Dipole Moment: (Debye)
     X:     0.0000      Y:     0.0000      Z:     1.6690     Total:     1.6690


  Saving occupied orbitals to File 100.

*** tstop() called on mac10147 at Thu Jun 16 14:12:35 2011
	user time   =       0.22 seconds =       0.00 minutes
	system time =       0.04 seconds =       0.00 minutes
	total time  =          1 seconds =       0.02 minutes
	Finite difference computation of gradient using 3-point formula
	Check for precision!
	Energy without displacment:  -74.9646625432
	Gradients are in mass-weighted, symmetry-adapted cartesians (in au).
 Coord      Energy(-)        Energy(+)        Force
    0    -74.9646650088   -74.9646519384     0.0013070391
    1    -74.9647934439   -74.9645204639     0.0272979943


			----------------------------------
			 OPTKING: for geometry optimizations  
			  - R.A. King,  Bethel University   
			------------------------------------

	Internal coordinates to be generated automatically.
	Detected frag with atoms:  1 2 3
	---Fragment 1 Bond Connectivity---
	 1 : 2 3
	 2 : 1
	 3 : 1

	---Fragment 1 Geometry and Gradient---
	 O           0.0000000000        0.0000000000       -0.1294768803
	 H           0.0000000000        1.4941866364        1.0274460245
	 H           0.0000000000       -1.4941866364        1.0274460245
	             0.0000000000        0.0000000000        0.0017487328
	             0.0000000000        0.0193779714       -0.0008743664
	             0.0000000000       -0.0193779714       -0.0008743664

	Previous optimization step data not found.  Starting new optimization.

	---Fragment 1 Intrafragment Coordinates---
	 * Coordinate *           * BOHR/RAD *       * ANG/DEG *
	 R(1,2)           =         1.889726	       1.000000
	 R(1,3)           =         1.889726	       1.000000
	 B(2,1,3)         =         1.823869	     104.500000

	Current energy   :       -74.9646625432

	Generating empirical Hessian (Fischer & Almlof '92) for each fragment.
	Following RFO solution 0.
	Projected energy change by RFO approximation:        -0.0017266218

	Back-transformation to cartesian coordinates...
	Successfully converged to displaced geometry.

	---Internal Coordinate Step in ANG or DEG, aJ/ANG or AJ/DEG ---
	 ----------------------------------------------------------------------
	 Coordinate             Previous        Force       Change         New 
	 ----------             --------       ------       ------       ------
	 R(1,2)          =      1.000000    -0.121823    -0.024004     0.975996
	 R(1,3)          =      1.000000    -0.121823    -0.024004     0.975996
	 B(2,1,3)        =    104.500000    -0.001805    -5.099835    99.400165
	 ----------------------------------------------------------------------

	Convergence Check Cycle    1: (using internal coordinates in au)
	                    Actual        Tolerance     Converged?
	----------------------------------------------------------
	MAX Force           2.4e-02        3.0e-04          no
	Energy Change      -7.5e+01        1.0e-06          no
	MAX Displacement    8.9e-02        1.2e-03          no
	----------------------------------------------------------
	Writing optimization data to binary file.
	Structure for next step:
	Cartesian Geometry (au)
	    O     0.0000000000   0.0000000000  -0.1335048481
	    H     0.0000000000   1.4066403151   1.0594094105
	    H     0.0000000000  -1.4066403151   1.0594094105
			--------------------------
			 OPTKING Finished Execution 
			--------------------------
	Using finite-differences of energies to determine gradients.
	Generating geometries for use with 3-point formula.
	Displacement size will be 5.00e-03.
	Number of atoms is 3.
	Number of SALC's is 2.
	irrep = 0, ncomponent = 3
		0: atom 0, direction 2, coef 0.334537
		1: atom 1, direction 2, coef -0.666365
		2: atom 2, direction 2, coef -0.666365
	irrep = 0, ncomponent = 2
		0: atom 1, direction 1, coef 0.707107
		1: atom 2, direction 1, coef -0.707107
	Number of displacements (including reference) is 5.

*** tstart() called on mac10147
*** at Thu Jun 16 14:12:35 2011

	There are an even number of electrons - assuming singlet.
	Specify the multiplicity with the MULTP option in the
	input if this is incorrect


         ---------------------------------------------------------
                                   SCF
            by Justin Turney, Rob Parrish, and Andy Simmonnett
                              RHF Reference
                        1 Threads,    256 MiB Core
         ---------------------------------------------------------

  ==> Geometry <==

    Molecular point group: c2v

    Geometry (in Angstrom), charge = 0, multiplicity = 1:

       Center              X                  Y                   Z       
    ------------   -----------------  -----------------  -----------------
           O          0.000000000000     0.000000000000    -0.070869049991
           H          0.000000000000     0.744362052270     0.562371625876
           H          0.000000000000    -0.744362052270     0.562371625876

    Number of unique atoms: 2

    Atoms equivalency:
       unique atom 0: 0 
       unique atom 1: 1 2 

  Running in c2v symmetry.

  Nuclear repulsion =    9.019165948280815

  Charge       = 0
  Multiplicity = 1
  Electrons    = 10
  Nalpha       = 5
  Nbeta        = 5

  ==> Algorithm <==

  SCF Algorithm Type is PK.
  DIIS disabled.
  MOM disabled.
  Guess Type is CORE.
  Energy threshold   = 1.00e-10
  Density threshold  = 1.00e-10
  Integral threshold = 0.00e+00

  ==> Primary Basis: STO-3G <==

  Basis Set
    Number of shells: 5
    Number of basis function: 7
    Number of Cartesian functions: 7
    Spherical Harmonics?: true
    Max angular momentum: 1

  ==> Pre-Iterations <==

  Minimum eigenvalue in the overlap matrix is 3.5524976980E-01.
  Using Symmetric Orthogonalization.
  SCF Guess: Core (One-Electron) Hamiltonian.

  Initial RHF energy:   -54.54233362353117

   -------------------------------------------------------
    Irrep   Nso     Nmo     Nalpha   Nbeta   Ndocc  Nsocc
   -------------------------------------------------------
     A1         4       4       3       3       3       0
     A2         0       0       0       0       0       0
     B1         1       1       1       1       1       0
     B2         2       2       1       1       1       0
   -------------------------------------------------------
    Total       7       7       5       5       5       0
   -------------------------------------------------------

  ==> Integral Setup <==

 MINTS: Wrapper to libmints.
   by Justin Turney

   Calculation information:
      Number of atoms:                   3
      Number of AO shells:               5
      Number of SO shells:               4
      Number of primitives:             15
      Number of atomic orbitals:         7
      Number of basis functions:         7

      Number of irreps:                  4
      Number of functions per irrep: [   4    0    1    2 ]

      Computing integrals...done

      Computed 138 non-zero integrals.

  ==> Iterations <==

                        Total Energy        Delta E      Density RMS

   @RHF iter   1:   -73.23398280012948   -1.86916e+01   0.00000e+00 
   @RHF iter   2:   -74.93490289344908   -1.70092e+00   4.03045e-01 
   @RHF iter   3:   -74.96423917175149   -2.93363e-02   5.43154e-02 
   @RHF iter   4:   -74.96536457611603   -1.12540e-03   9.13335e-03 
   @RHF iter   5:   -74.96548612433256   -1.21548e-04   3.45344e-03 
   @RHF iter   6:   -74.96550670154262   -2.05772e-05   1.33971e-03 
   @RHF iter   7:   -74.96551052661695   -3.82507e-06   5.67517e-04 
   @RHF iter   8:   -74.96551125627157   -7.29655e-07   2.43646e-04 
   @RHF iter   9:   -74.96551139649968   -1.40228e-07   1.05860e-04 
   @RHF iter  10:   -74.96551142350887   -2.70092e-08   4.62135e-05 
   @RHF iter  11:   -74.96551142871445   -5.20558e-09   2.02296e-05 
   @RHF iter  12:   -74.96551142971789   -1.00344e-09   8.86763e-06 
   @RHF iter  13:   -74.96551142991133   -1.93438e-10   3.89005e-06 
   @RHF iter  14:   -74.96551142994868   -3.73461e-11   1.70718e-06 
   @RHF iter  15:   -74.96551142995588   -7.20490e-12   7.49378e-07 
   @RHF iter  16:   -74.96551142995717   -1.29319e-12   3.28984e-07 
   @RHF iter  17:   -74.96551142995749   -3.12639e-13   1.44436e-07 
   @RHF iter  18:   -74.96551142995752   -2.84217e-14   6.34154e-08 
   @RHF iter  19:   -74.96551142995760   -8.52651e-14   2.78433e-08 
   @RHF iter  20:   -74.96551142995759   1.42109e-14   1.22251e-08 
   @RHF iter  21:   -74.96551142995756   2.84217e-14   5.36768e-09 
   @RHF iter  22:   -74.96551142995750   5.68434e-14   2.35680e-09 
   @RHF iter  23:   -74.96551142995753   -2.84217e-14   1.03481e-09 
   @RHF iter  24:   -74.96551142995754   -1.42109e-14   4.54355e-10 
   @RHF iter  25:   -74.96551142995756   -1.42109e-14   1.99495e-10 

  ==> Post-Iterations <==

	Orbital Energies (a.u.)
	-----------------------

	Doubly Occupied:                                                      

	   1A1   -20.250923     2A1    -1.264341     1B2    -0.598499  
	   3A1    -0.463098     1B1    -0.393756  

	Virtual:                                                              

	   4A1     0.594549     2B2     0.704367  

	Final Occupation by Irrep:
	         A1    A2    B1    B2 
	DOCC [     3,    0,    1,    1 ]

  Energy converged.

  @RHF Final Energy:   -74.96551142995756

  ==> Properties <==

 OEPROP: One-electron properties/analyses.
  by Rob Parrish and Justin Turney.
  built on LIBMINTS.

 Dipole Moment: (a.u.)
     X:     0.0000      Y:     0.0000      Z:     0.6811     Total:     0.6811

 Dipole Moment: (Debye)
     X:     0.0000      Y:     0.0000      Z:     1.7311     Total:     1.7311


  Saving occupied orbitals to File 100.

*** tstop() called on mac10147 at Thu Jun 16 14:12:35 2011
	user time   =       0.27 seconds =       0.00 minutes
	system time =       0.05 seconds =       0.00 minutes
	total time  =          0 seconds =       0.00 minutes

*** tstart() called on mac10147
*** at Thu Jun 16 14:12:35 2011

	There are an even number of electrons - assuming singlet.
	Specify the multiplicity with the MULTP option in the
	input if this is incorrect


         ---------------------------------------------------------
                                   SCF
            by Justin Turney, Rob Parrish, and Andy Simmonnett
                              RHF Reference
                        1 Threads,    256 MiB Core
         ---------------------------------------------------------

  ==> Geometry <==

    Molecular point group: c2v

    Geometry (in Angstrom), charge = 0, multiplicity = 1:

       Center              X                  Y                   Z       
    ------------   -----------------  -----------------  -----------------
           O          0.000000000000     0.000000000000    -0.070426406477
           H          0.000000000000     0.744362052270     0.558859088985
           H          0.000000000000    -0.744362052270     0.558859088985

    Number of unique atoms: 2

    Atoms equivalency:
       unique atom 0: 0 
       unique atom 1: 1 2 

  Running in c2v symmetry.

  Nuclear repulsion =    9.041903991200099

  Charge       = 0
  Multiplicity = 1
  Electrons    = 10
  Nalpha       = 5
  Nbeta        = 5

  ==> Algorithm <==

  SCF Algorithm Type is PK.
  DIIS disabled.
  MOM disabled.
  Guess Type is CORE.
  Energy threshold   = 1.00e-10
  Density threshold  = 1.00e-10
  Integral threshold = 0.00e+00

  ==> Primary Basis: STO-3G <==

  Basis Set
    Number of shells: 5
    Number of basis function: 7
    Number of Cartesian functions: 7
    Spherical Harmonics?: true
    Max angular momentum: 1

  ==> Pre-Iterations <==

  Minimum eigenvalue in the overlap matrix is 3.5355414262E-01.
  Using Symmetric Orthogonalization.
  SCF Guess: Core (One-Electron) Hamiltonian.

  Initial RHF energy:   -54.53469673393897

   -------------------------------------------------------
    Irrep   Nso     Nmo     Nalpha   Nbeta   Ndocc  Nsocc
   -------------------------------------------------------
     A1         4       4       3       3       3       0
     A2         0       0       0       0       0       0
     B1         1       1       1       1       1       0
     B2         2       2       1       1       1       0
   -------------------------------------------------------
    Total       7       7       5       5       5       0
   -------------------------------------------------------

  ==> Integral Setup <==

 MINTS: Wrapper to libmints.
   by Justin Turney

   Calculation information:
      Number of atoms:                   3
      Number of AO shells:               5
      Number of SO shells:               4
      Number of primitives:             15
      Number of atomic orbitals:         7
      Number of basis functions:         7

      Number of irreps:                  4
      Number of functions per irrep: [   4    0    1    2 ]

      Computing integrals...done

      Computed 138 non-zero integrals.

  ==> Iterations <==

                        Total Energy        Delta E      Density RMS

   @RHF iter   1:   -73.23336229721727   -1.86987e+01   0.00000e+00 
   @RHF iter   2:   -74.93636663719356   -1.70300e+00   4.03129e-01 
   @RHF iter   3:   -74.96416271635719   -2.77961e-02   5.28753e-02 
   @RHF iter   4:   -74.96523807018835   -1.07535e-03   8.99924e-03 
   @RHF iter   5:   -74.96535639014178   -1.18320e-04   3.41137e-03 
   @RHF iter   6:   -74.96537642241019   -2.00323e-05   1.32669e-03 
   @RHF iter   7:   -74.96538013371337   -3.71130e-06   5.60835e-04 
   @RHF iter   8:   -74.96538083892355   -7.05210e-07   2.40384e-04 
   @RHF iter   9:   -74.96538097391850   -1.34995e-07   1.04239e-04 
   @RHF iter  10:   -74.96538099981672   -2.58982e-08   4.54167e-05 
   @RHF iter  11:   -74.96538100478847   -4.97175e-09   1.98415e-05 
   @RHF iter  12:   -74.96538100574305   -9.54586e-10   8.68024e-06 
   @RHF iter  13:   -74.96538100592635   -1.83292e-10   3.80030e-06 
   @RHF iter  14:   -74.96538100596156   -3.52145e-11   1.66448e-06 
   @RHF iter  15:   -74.96538100596831   -6.75016e-12   7.29187e-07 
   @RHF iter  16:   -74.96538100596963   -1.32161e-12   3.19485e-07 
   @RHF iter  17:   -74.96538100596986   -2.27374e-13   1.39988e-07 
   @RHF iter  18:   -74.96538100596987   -1.42109e-14   6.13407e-08 
   @RHF iter  19:   -74.96538100596992   -4.26326e-14   2.68791e-08 
   @RHF iter  20:   -74.96538100596995   -2.84217e-14   1.17784e-08 
   @RHF iter  21:   -74.96538100596993   1.42109e-14   5.16128e-09 
   @RHF iter  22:   -74.96538100596993   0.00000e+00   2.26169e-09 
   @RHF iter  23:   -74.96538100596996   -2.84217e-14   9.91077e-10 
   @RHF iter  24:   -74.96538100596993   2.84217e-14   4.34295e-10 
   @RHF iter  25:   -74.96538100596996   -2.84217e-14   1.90308e-10 

  ==> Post-Iterations <==

	Orbital Energies (a.u.)
	-----------------------

	Doubly Occupied:                                                      

	   1A1   -20.250194     2A1    -1.265234     1B2    -0.600425  
	   3A1    -0.462590     1B1    -0.393669  

	Virtual:                                                              

	   4A1     0.596510     2B2     0.708224  

	Final Occupation by Irrep:
	         A1    A2    B1    B2 
	DOCC [     3,    0,    1,    1 ]

  Energy converged.

  @RHF Final Energy:   -74.96538100596996

  ==> Properties <==

 OEPROP: One-electron properties/analyses.
  by Rob Parrish and Justin Turney.
  built on LIBMINTS.

 Dipole Moment: (a.u.)
     X:     0.0000      Y:     0.0000      Z:     0.6817     Total:     0.6817

 Dipole Moment: (Debye)
     X:     0.0000      Y:     0.0000      Z:     1.7326     Total:     1.7326


  Saving occupied orbitals to File 100.

*** tstop() called on mac10147 at Thu Jun 16 14:12:35 2011
	user time   =       0.31 seconds =       0.01 minutes
	system time =       0.06 seconds =       0.00 minutes
	total time  =          0 seconds =       0.00 minutes

*** tstart() called on mac10147
*** at Thu Jun 16 14:12:35 2011

	There are an even number of electrons - assuming singlet.
	Specify the multiplicity with the MULTP option in the
	input if this is incorrect


         ---------------------------------------------------------
                                   SCF
            by Justin Turney, Rob Parrish, and Andy Simmonnett
                              RHF Reference
                        1 Threads,    256 MiB Core
         ---------------------------------------------------------

  ==> Geometry <==

    Molecular point group: c2v

    Geometry (in Angstrom), charge = 0, multiplicity = 1:

       Center              X                  Y                   Z       
    ------------   -----------------  -----------------  -----------------
           O          0.000000000000     0.000000000000    -0.070647728234
           H          0.000000000000     0.742498405503     0.560615357431
           H          0.000000000000    -0.742498405503     0.560615357431

    Number of unique atoms: 2

    Atoms equivalency:
       unique atom 0: 0 
       unique atom 1: 1 2 

  Running in c2v symmetry.

  Nuclear repulsion =    9.044067932854954

  Charge       = 0
  Multiplicity = 1
  Electrons    = 10
  Nalpha       = 5
  Nbeta        = 5

  ==> Algorithm <==

  SCF Algorithm Type is PK.
  DIIS disabled.
  MOM disabled.
  Guess Type is CORE.
  Energy threshold   = 1.00e-10
  Density threshold  = 1.00e-10
  Integral threshold = 0.00e+00

  ==> Primary Basis: STO-3G <==

  Basis Set
    Number of shells: 5
    Number of basis function: 7
    Number of Cartesian functions: 7
    Spherical Harmonics?: true
    Max angular momentum: 1

  ==> Pre-Iterations <==

  Minimum eigenvalue in the overlap matrix is 3.5347357802E-01.
  Using Symmetric Orthogonalization.
  SCF Guess: Core (One-Electron) Hamiltonian.

  Initial RHF energy:   -54.53312943409929

   -------------------------------------------------------
    Irrep   Nso     Nmo     Nalpha   Nbeta   Ndocc  Nsocc
   -------------------------------------------------------
     A1         4       4       3       3       3       0
     A2         0       0       0       0       0       0
     B1         1       1       1       1       1       0
     B2         2       2       1       1       1       0
   -------------------------------------------------------
    Total       7       7       5       5       5       0
   -------------------------------------------------------

  ==> Integral Setup <==

 MINTS: Wrapper to libmints.
   by Justin Turney

   Calculation information:
      Number of atoms:                   3
      Number of AO shells:               5
      Number of SO shells:               4
      Number of primitives:             15
      Number of atomic orbitals:         7
      Number of basis functions:         7

      Number of irreps:                  4
      Number of functions per irrep: [   4    0    1    2 ]

      Computing integrals...done

      Computed 138 non-zero integrals.

  ==> Iterations <==

                        Total Energy        Delta E      Density RMS

   @RHF iter   1:   -73.23274549327367   -1.86996e+01   0.00000e+00 
   @RHF iter   2:   -74.93593079829326   -1.70319e+00   4.03305e-01 
   @RHF iter   3:   -74.96411369203740   -2.81829e-02   5.32687e-02 
   @RHF iter   4:   -74.96519828495106   -1.08459e-03   9.02154e-03 
   @RHF iter   5:   -74.96531653644419   -1.18251e-04   3.41119e-03 
   @RHF iter   6:   -74.96533650553917   -1.99691e-05   1.32390e-03 
   @RHF iter   7:   -74.96534020216504   -3.69663e-06   5.59399e-04 
   @RHF iter   8:   -74.96534090432571   -7.02161e-07   2.39677e-04 
   @RHF iter   9:   -74.96534103870206   -1.34376e-07   1.03911e-04 
   @RHF iter  10:   -74.96534106447571   -2.57736e-08   4.52664e-05 
   @RHF iter  11:   -74.96534106942244   -4.94673e-09   1.97732e-05 
   @RHF iter  12:   -74.96534107037208   -9.49640e-10   8.64931e-06 
   @RHF iter  13:   -74.96534107055436   -1.82283e-10   3.78632e-06 
   @RHF iter  14:   -74.96534107058933   -3.49729e-11   1.65818e-06 
   @RHF iter  15:   -74.96534107059605   -6.72173e-12   7.26343e-07 
   @RHF iter  16:   -74.96534107059738   -1.32161e-12   3.18204e-07 
   @RHF iter  17:   -74.96534107059760   -2.27374e-13   1.39412e-07 
   @RHF iter  18:   -74.96534107059769   -8.52651e-14   6.10814e-08 
   @RHF iter  19:   -74.96534107059765   4.26326e-14   2.67625e-08 
   @RHF iter  20:   -74.96534107059763   1.42109e-14   1.17260e-08 
   @RHF iter  21:   -74.96534107059767   -4.26326e-14   5.13778e-09 
   @RHF iter  22:   -74.96534107059772   -4.26326e-14   2.25114e-09 
   @RHF iter  23:   -74.96534107059766   5.68434e-14   9.86350e-10 
   @RHF iter  24:   -74.96534107059763   2.84217e-14   4.32176e-10 
   @RHF iter  25:   -74.96534107059765   -1.42109e-14   1.89358e-10 

  ==> Post-Iterations <==

	Orbital Energies (a.u.)
	-----------------------

	Doubly Occupied:                                                      

	   1A1   -20.250540     2A1    -1.265656     1B2    -0.599922  
	   3A1    -0.463350     1B1    -0.393883  

	Virtual:                                                              

	   4A1     0.597100     2B2     0.707559  

	Final Occupation by Irrep:
	         A1    A2    B1    B2 
	DOCC [     3,    0,    1,    1 ]

  Energy converged.

  @RHF Final Energy:   -74.96534107059765

  ==> Properties <==

 OEPROP: One-electron properties/analyses.
  by Rob Parrish and Justin Turney.
  built on LIBMINTS.

 Dipole Moment: (a.u.)
     X:     0.0000      Y:     0.0000      Z:     0.6825     Total:     0.6825

 Dipole Moment: (Debye)
     X:     0.0000      Y:     0.0000      Z:     1.7347     Total:     1.7347


  Saving occupied orbitals to File 100.

*** tstop() called on mac10147 at Thu Jun 16 14:12:35 2011
	user time   =       0.35 seconds =       0.01 minutes
	system time =       0.07 seconds =       0.00 minutes
	total time  =          0 seconds =       0.00 minutes

*** tstart() called on mac10147
*** at Thu Jun 16 14:12:35 2011

	There are an even number of electrons - assuming singlet.
	Specify the multiplicity with the MULTP option in the
	input if this is incorrect


         ---------------------------------------------------------
                                   SCF
            by Justin Turney, Rob Parrish, and Andy Simmonnett
                              RHF Reference
                        1 Threads,    256 MiB Core
         ---------------------------------------------------------

  ==> Geometry <==

    Molecular point group: c2v

    Geometry (in Angstrom), charge = 0, multiplicity = 1:

       Center              X                  Y                   Z       
    ------------   -----------------  -----------------  -----------------
           O          0.000000000000     0.000000000000    -0.070647728234
           H          0.000000000000     0.746225699037     0.560615357431
           H          0.000000000000    -0.746225699037     0.560615357431

    Number of unique atoms: 2

    Atoms equivalency:
       unique atom 0: 0 
       unique atom 1: 1 2 

  Running in c2v symmetry.

  Nuclear repulsion =    9.017020945014977

  Charge       = 0
  Multiplicity = 1
  Electrons    = 10
  Nalpha       = 5
  Nbeta        = 5

  ==> Algorithm <==

  SCF Algorithm Type is PK.
  DIIS disabled.
  MOM disabled.
  Guess Type is CORE.
  Energy threshold   = 1.00e-10
  Density threshold  = 1.00e-10
  Integral threshold = 0.00e+00

  ==> Primary Basis: STO-3G <==

  Basis Set
    Number of shells: 5
    Number of basis function: 7
    Number of Cartesian functions: 7
    Spherical Harmonics?: true
    Max angular momentum: 1

  ==> Pre-Iterations <==

  Minimum eigenvalue in the overlap matrix is 3.5532931414E-01.
  Using Symmetric Orthogonalization.
  SCF Guess: Core (One-Electron) Hamiltonian.

  Initial RHF energy:   -54.54388868789373

   -------------------------------------------------------
    Irrep   Nso     Nmo     Nalpha   Nbeta   Ndocc  Nsocc
   -------------------------------------------------------
     A1         4       4       3       3       3       0
     A2         0       0       0       0       0       0
     B1         1       1       1       1       1       0
     B2         2       2       1       1       1       0
   -------------------------------------------------------
    Total       7       7       5       5       5       0
   -------------------------------------------------------

  ==> Integral Setup <==

 MINTS: Wrapper to libmints.
   by Justin Turney

   Calculation information:
      Number of atoms:                   3
      Number of AO shells:               5
      Number of SO shells:               4
      Number of primitives:             15
      Number of atomic orbitals:         7
      Number of basis functions:         7

      Number of irreps:                  4
      Number of functions per irrep: [   4    0    1    2 ]

      Computing integrals...done

      Computed 138 non-zero integrals.

  ==> Iterations <==

                        Total Energy        Delta E      Density RMS

   @RHF iter   1:   -73.23459800964348   -1.86907e+01   0.00000e+00 
   @RHF iter   2:   -74.93534423362141   -1.70075e+00   4.02870e-01 
   @RHF iter   3:   -74.96428526852712   -2.89410e-02   5.39211e-02 
   @RHF iter   4:   -74.96540110689496   -1.11584e-03   9.11068e-03 
   @RHF iter   5:   -74.96552274324132   -1.21636e-04   3.45383e-03 
   @RHF iter   6:   -74.96554338956271   -2.06463e-05   1.34268e-03 
   @RHF iter   7:   -74.96554723054889   -3.84099e-06   5.69027e-04 
   @RHF iter   8:   -74.96554796350230   -7.32953e-07   2.44386e-04 
   @RHF iter   9:   -74.96554810439928   -1.40897e-07   1.06203e-04 
   @RHF iter  10:   -74.96554813154324   -2.71440e-08   4.63704e-05 
   @RHF iter  11:   -74.96554813677588   -5.23264e-09   2.03009e-05 
   @RHF iter  12:   -74.96554813778474   -1.00886e-09   8.89991e-06 
   @RHF iter  13:   -74.96554813797930   -1.94561e-10   3.90464e-06 
   @RHF iter  14:   -74.96554813801686   -3.75593e-11   1.71377e-06 
   @RHF iter  15:   -74.96554813802408   -7.21911e-12   7.52347e-07 
   @RHF iter  16:   -74.96554813802545   -1.37845e-12   3.30322e-07 
   @RHF iter  17:   -74.96554813802572   -2.70006e-13   1.45039e-07 
   @RHF iter  18:   -74.96554813802578   -5.68434e-14   6.36865e-08 
   @RHF iter  19:   -74.96554813802581   -2.84217e-14   2.79653e-08 
   @RHF iter  20:   -74.96554813802580   1.42109e-14   1.22799e-08 
   @RHF iter  21:   -74.96554813802581   -1.42109e-14   5.39231e-09 
   @RHF iter  22:   -74.96554813802582   -1.42109e-14   2.36785e-09 
   @RHF iter  23:   -74.96554813802577   5.68434e-14   1.03977e-09 
   @RHF iter  24:   -74.96554813802577   0.00000e+00   4.56580e-10 
   @RHF iter  25:   -74.96554813802581   -4.26326e-14   2.00494e-10 

  ==> Post-Iterations <==

	Orbital Energies (a.u.)
	-----------------------

	Doubly Occupied:                                                      

	   1A1   -20.250578     2A1    -1.263924     1B2    -0.598999  
	   3A1    -0.462341     1B1    -0.393544  

	Virtual:                                                              

	   4A1     0.593960     2B2     0.705030  

	Final Occupation by Irrep:
	         A1    A2    B1    B2 
	DOCC [     3,    0,    1,    1 ]

  Energy converged.

  @RHF Final Energy:   -74.96554813802581

  ==> Properties <==

 OEPROP: One-electron properties/analyses.
  by Rob Parrish and Justin Turney.
  built on LIBMINTS.

 Dipole Moment: (a.u.)
     X:     0.0000      Y:     0.0000      Z:     0.6802     Total:     0.6802

 Dipole Moment: (Debye)
     X:     0.0000      Y:     0.0000      Z:     1.7290     Total:     1.7290


  Saving occupied orbitals to File 100.

*** tstop() called on mac10147 at Thu Jun 16 14:12:35 2011
	user time   =       0.39 seconds =       0.01 minutes
	system time =       0.07 seconds =       0.00 minutes
	total time  =          0 seconds =       0.00 minutes

*** tstart() called on mac10147
*** at Thu Jun 16 14:12:35 2011

	There are an even number of electrons - assuming singlet.
	Specify the multiplicity with the MULTP option in the
	input if this is incorrect


         ---------------------------------------------------------
                                   SCF
            by Justin Turney, Rob Parrish, and Andy Simmonnett
                              RHF Reference
                        1 Threads,    256 MiB Core
         ---------------------------------------------------------

  ==> Geometry <==

    Molecular point group: c2v

    Geometry (in Angstrom), charge = 0, multiplicity = 1:

       Center              X                  Y                   Z       
    ------------   -----------------  -----------------  -----------------
           O          0.000000000000     0.000000000000    -0.070647728234
           H          0.000000000000     0.744362052270     0.560615357431
           H          0.000000000000    -0.744362052270     0.560615357431

    Number of unique atoms: 2

    Atoms equivalency:
       unique atom 0: 0 
       unique atom 1: 1 2 

  Running in c2v symmetry.

  Nuclear repulsion =    9.030530428593268

  Charge       = 0
  Multiplicity = 1
  Electrons    = 10
  Nalpha       = 5
  Nbeta        = 5

  ==> Algorithm <==

  SCF Algorithm Type is PK.
  DIIS disabled.
  MOM disabled.
  Guess Type is CORE.
  Energy threshold   = 1.00e-10
  Density threshold  = 1.00e-10
  Integral threshold = 0.00e+00

  ==> Primary Basis: STO-3G <==

  Basis Set
    Number of shells: 5
    Number of basis function: 7
    Number of Cartesian functions: 7
    Spherical Harmonics?: true
    Max angular momentum: 1

  ==> Pre-Iterations <==

  Minimum eigenvalue in the overlap matrix is 3.5440078717E-01.
  Using Symmetric Orthogonalization.
  SCF Guess: Core (One-Electron) Hamiltonian.

  Initial RHF energy:   -54.53851830631971

   -------------------------------------------------------
    Irrep   Nso     Nmo     Nalpha   Nbeta   Ndocc  Nsocc
   -------------------------------------------------------
     A1         4       4       3       3       3       0
     A2         0       0       0       0       0       0
     B1         1       1       1       1       1       0
     B2         2       2       1       1       1       0
   -------------------------------------------------------
    Total       7       7       5       5       5       0
   -------------------------------------------------------

  ==> Integral Setup <==

 MINTS: Wrapper to libmints.
   by Justin Turney

   Calculation information:
      Number of atoms:                   3
      Number of AO shells:               5
      Number of SO shells:               4
      Number of primitives:             15
      Number of atomic orbitals:         7
      Number of basis functions:         7

      Number of irreps:                  4
      Number of functions per irrep: [   4    0    1    2 ]

      Computing integrals...done

      Computed 138 non-zero integrals.

  ==> Iterations <==

                        Total Energy        Delta E      Density RMS

   @RHF iter   1:   -73.23367429440417   -1.86952e+01   0.00000e+00 
   @RHF iter   2:   -74.93564709905900   -1.70197e+00   4.03086e-01 
   @RHF iter   3:   -74.96420596657045   -2.85589e-02   5.35930e-02 
   @RHF iter   4:   -74.96530600483719   -1.10004e-03   9.06571e-03 
   @RHF iter   5:   -74.96542593171242   -1.19927e-04   3.43236e-03 
   @RHF iter   6:   -74.96544623582135   -2.03041e-05   1.33323e-03 
   @RHF iter   7:   -74.96545000378603   -3.76796e-06   5.64180e-04 
   @RHF iter   8:   -74.96545072114743   -7.17361e-07   2.42015e-04 
   @RHF iter   9:   -74.96545085873925   -1.37592e-07   1.05048e-04 
   @RHF iter  10:   -74.96545088518789   -2.64486e-08   4.58139e-05 
   @RHF iter  11:   -74.96545089027531   -5.08741e-09   2.00348e-05 
   @RHF iter  12:   -74.96545089125405   -9.78744e-10   8.77347e-06 
   @RHF iter  13:   -74.96545089144237   -1.88322e-10   3.84491e-06 
   @RHF iter  14:   -74.96545089147860   -3.62235e-11   1.68569e-06 
   @RHF iter  15:   -74.96545089148557   -6.97753e-12   7.39207e-07 
   @RHF iter  16:   -74.96545089148697   -1.39266e-12   3.24195e-07 
   @RHF iter  17:   -74.96545089148718   -2.13163e-13   1.42192e-07 
   @RHF iter  18:   -74.96545089148725   -7.10543e-14   6.23681e-08 
   @RHF iter  19:   -74.96545089148724   1.42109e-14   2.73563e-08 
   @RHF iter  20:   -74.96545089148728   -4.26326e-14   1.19993e-08 
   @RHF iter  21:   -74.96545089148721   7.10543e-14   5.26329e-09 
   @RHF iter  22:   -74.96545089148728   -7.10543e-14   2.30866e-09 
   @RHF iter  23:   -74.96545089148728   0.00000e+00   1.01266e-09 
   @RHF iter  24:   -74.96545089148727   1.42109e-14   4.44190e-10 
   @RHF iter  25:   -74.96545089148725   1.42109e-14   1.94839e-10 

  ==> Post-Iterations <==

	Orbital Energies (a.u.)
	-----------------------

	Doubly Occupied:                                                      

	   1A1   -20.250559     2A1    -1.264788     1B2    -0.599462  
	   3A1    -0.462845     1B1    -0.393713  

	Virtual:                                                              

	   4A1     0.595531     2B2     0.706293  

	Final Occupation by Irrep:
	         A1    A2    B1    B2 
	DOCC [     3,    0,    1,    1 ]

  Energy converged.

  @RHF Final Energy:   -74.96545089148725

  ==> Properties <==

 OEPROP: One-electron properties/analyses.
  by Rob Parrish and Justin Turney.
  built on LIBMINTS.

 Dipole Moment: (a.u.)
     X:     0.0000      Y:     0.0000      Z:     0.6814     Total:     0.6814

 Dipole Moment: (Debye)
     X:     0.0000      Y:     0.0000      Z:     1.7318     Total:     1.7318


  Saving occupied orbitals to File 100.

*** tstop() called on mac10147 at Thu Jun 16 14:12:35 2011
	user time   =       0.43 seconds =       0.01 minutes
	system time =       0.08 seconds =       0.00 minutes
	total time  =          0 seconds =       0.00 minutes
	Finite difference computation of gradient using 3-point formula
	Check for precision!
	Energy without displacment:  -74.9654508915
	Gradients are in mass-weighted, symmetry-adapted cartesians (in au).
 Coord      Energy(-)        Energy(+)        Force
    0    -74.9655114300   -74.9653810060     0.0130423988
    1    -74.9653410706   -74.9655481380    -0.0207067428


			----------------------------------
			 OPTKING: for geometry optimizations  
			  - R.A. King,  Bethel University   
			------------------------------------

	Prevous internal coordinate definitions found.
	---Fragment 1 Geometry and Gradient---
	 O           0.0000000000        0.0000000000       -0.1335048481
	 H           0.0000000000        1.4066403151        1.0594094105
	 H           0.0000000000       -1.4066403151        1.0594094105
	             0.0000000000        0.0000000000        0.0174498758
	             0.0000000000       -0.0146990532       -0.0087249379
	             0.0000000000        0.0146990532       -0.0087249379

	---Fragment 1 Intrafragment Coordinates---
	 * Coordinate *           * BOHR/RAD *       * ANG/DEG *
	 R(1,2)           =         1.844365	       0.975996
	 R(1,3)           =         1.844365	       0.975996
	 B(2,1,3)         =         1.734860	      99.400165

	Current energy   :       -74.9654508915

	Energy change for the previous step:
		Projected    :        -0.0017266218
		Actual       :        -0.0007883483

	Performing BFGS update with previous 1 gradient(s).
	Following RFO solution 0.
	Projected energy change by RFO approximation:        -0.0004951556

	Back-transformation to cartesian coordinates...
	Successfully converged to displaced geometry.

	---Internal Coordinate Step in ANG or DEG, aJ/ANG or AJ/DEG ---
	 ----------------------------------------------------------------------
	 Coordinate             Previous        Force       Change         New 
	 ----------             --------       ------       ------       ------
	 R(1,2)          =      0.975996     0.138853     0.014963     0.990959
	 R(1,3)          =      0.975996     0.138853     0.014963     0.990959
	 B(2,1,3)        =     99.400165     0.000400     0.404888    99.805052
	 ----------------------------------------------------------------------

	Convergence Check Cycle    2: (using internal coordinates in au)
	                    Actual        Tolerance     Converged?
	----------------------------------------------------------
	MAX Force           1.7e-02        3.0e-04          no
	Energy Change      -7.9e-04        1.0e-06          no
	MAX Displacement    2.8e-02        1.2e-03          no
	----------------------------------------------------------
	Writing optimization data to binary file.
	Structure for next step:
	Cartesian Geometry (au)
	    O     0.0000000000   0.0000000000  -0.1349860496
	    H     0.0000000000   1.4324765631   1.0711632823
	    H     0.0000000000  -1.4324765631   1.0711632823
			--------------------------
			 OPTKING Finished Execution 
			--------------------------
	Using finite-differences of energies to determine gradients.
	Generating geometries for use with 3-point formula.
	Displacement size will be 5.00e-03.
	Number of atoms is 3.
	Number of SALC's is 2.
	irrep = 0, ncomponent = 3
		0: atom 0, direction 2, coef 0.334537
		1: atom 1, direction 2, coef -0.666365
		2: atom 2, direction 2, coef -0.666365
	irrep = 0, ncomponent = 2
		0: atom 1, direction 1, coef 0.707107
		1: atom 2, direction 1, coef -0.707107
	Number of displacements (including reference) is 5.

*** tstart() called on mac10147
*** at Thu Jun 16 14:12:35 2011

	There are an even number of electrons - assuming singlet.
	Specify the multiplicity with the MULTP option in the
	input if this is incorrect


         ---------------------------------------------------------
                                   SCF
            by Justin Turney, Rob Parrish, and Andy Simmonnett
                              RHF Reference
                        1 Threads,    256 MiB Core
         ---------------------------------------------------------

  ==> Geometry <==

    Molecular point group: c2v

    Geometry (in Angstrom), charge = 0, multiplicity = 1:

       Center              X                  Y                   Z       
    ------------   -----------------  -----------------  -----------------
           O          0.000000000000     0.000000000000    -0.071652868156
           H          0.000000000000     0.758034006923     0.568591507420
           H          0.000000000000    -0.758034006923     0.568591507420

    Number of unique atoms: 2

    Atoms equivalency:
       unique atom 0: 0 
       unique atom 1: 1 2 

  Running in c2v symmetry.

  Nuclear repulsion =    8.882149463955249

  Charge       = 0
  Multiplicity = 1
  Electrons    = 10
  Nalpha       = 5
  Nbeta        = 5

  ==> Algorithm <==

  SCF Algorithm Type is PK.
  DIIS disabled.
  MOM disabled.
  Guess Type is CORE.
  Energy threshold   = 1.00e-10
  Density threshold  = 1.00e-10
  Integral threshold = 0.00e+00

  ==> Primary Basis: STO-3G <==

  Basis Set
    Number of shells: 5
    Number of basis function: 7
    Number of Cartesian functions: 7
    Spherical Harmonics?: true
    Max angular momentum: 1

  ==> Pre-Iterations <==

  Minimum eigenvalue in the overlap matrix is 3.6504223883E-01.
  Using Symmetric Orthogonalization.
  SCF Guess: Core (One-Electron) Hamiltonian.

  Initial RHF energy:   -54.59411760114849

   -------------------------------------------------------
    Irrep   Nso     Nmo     Nalpha   Nbeta   Ndocc  Nsocc
   -------------------------------------------------------
     A1         4       4       3       3       3       0
     A2         0       0       0       0       0       0
     B1         1       1       1       1       1       0
     B2         2       2       1       1       1       0
   -------------------------------------------------------
    Total       7       7       5       5       5       0
   -------------------------------------------------------

  ==> Integral Setup <==

 MINTS: Wrapper to libmints.
   by Justin Turney

   Calculation information:
      Number of atoms:                   3
      Number of AO shells:               5
      Number of SO shells:               4
      Number of primitives:             15
      Number of atomic orbitals:         7
      Number of basis functions:         7

      Number of irreps:                  4
      Number of functions per irrep: [   4    0    1    2 ]

      Computing integrals...done

      Computed 138 non-zero integrals.

  ==> Iterations <==

                        Total Energy        Delta E      Density RMS

   @RHF iter   1:   -73.24156743889154   -1.86474e+01   0.00000e+00 
   @RHF iter   2:   -74.92895449923341   -1.68739e+00   4.01504e-01 
   @RHF iter   3:   -74.96434715500811   -3.53927e-02   5.94606e-02 
   @RHF iter   4:   -74.96570752384874   -1.36037e-03   9.75709e-03 
   @RHF iter   5:   -74.96584904863737   -1.41525e-04   3.69804e-03 
   @RHF iter   6:   -74.96587341059205   -2.43620e-05   1.43440e-03 
   @RHF iter   7:   -74.96587804851738   -4.63793e-06   6.16775e-04 
   @RHF iter   8:   -74.96587895447186   -9.05954e-07   2.67860e-04 
   @RHF iter   9:   -74.96587913269374   -1.78222e-07   1.17808e-04 
   @RHF iter  10:   -74.96587916782582   -3.51321e-08   5.20380e-05 
   @RHF iter  11:   -74.96587917475533   -6.92951e-09   2.30479e-05 
   @RHF iter  12:   -74.96587917612236   -1.36703e-09   1.02213e-05 
   @RHF iter  13:   -74.96587917639204   -2.69679e-10   4.53621e-06 
   @RHF iter  14:   -74.96587917644523   -5.31912e-11   2.01394e-06 
   @RHF iter  15:   -74.96587917645574   -1.05160e-11   8.94313e-07 
   @RHF iter  16:   -74.96587917645778   -2.03215e-12   3.97174e-07 
   @RHF iter  17:   -74.96587917645820   -4.26326e-13   1.76400e-07 
   @RHF iter  18:   -74.96587917645830   -9.94760e-14   7.83487e-08 
   @RHF iter  19:   -74.96587917645829   1.42109e-14   3.47994e-08 
   @RHF iter  20:   -74.96587917645832   -2.84217e-14   1.54567e-08 
   @RHF iter  21:   -74.96587917645826   5.68434e-14   6.86536e-09 
   @RHF iter  22:   -74.96587917645832   -5.68434e-14   3.04938e-09 
   @RHF iter  23:   -74.96587917645832   0.00000e+00   1.35444e-09 
   @RHF iter  24:   -74.96587917645829   2.84217e-14   6.01601e-10 
   @RHF iter  25:   -74.96587917645830   -1.42109e-14   2.67215e-10 
   @RHF iter  26:   -74.96587917645832   -1.42109e-14   1.18689e-10 

  ==> Post-Iterations <==

	Orbital Energies (a.u.)
	-----------------------

	Doubly Occupied:                                                      

	   1A1   -20.252412     2A1    -1.256622     1B2    -0.591764  
	   3A1    -0.460300     1B1    -0.392744  

	Virtual:                                                              

	   4A1     0.579715     2B2     0.688471  

	Final Occupation by Irrep:
	         A1    A2    B1    B2 
	DOCC [     3,    0,    1,    1 ]

  Energy converged.

  @RHF Final Energy:   -74.96587917645832

  ==> Properties <==

 OEPROP: One-electron properties/analyses.
  by Rob Parrish and Justin Turney.
  built on LIBMINTS.

 Dipole Moment: (a.u.)
     X:     0.0000      Y:     0.0000      Z:     0.6718     Total:     0.6718

 Dipole Moment: (Debye)
     X:     0.0000      Y:     0.0000      Z:     1.7075     Total:     1.7075


  Saving occupied orbitals to File 100.

*** tstop() called on mac10147 at Thu Jun 16 14:12:35 2011
	user time   =       0.47 seconds =       0.01 minutes
	system time =       0.09 seconds =       0.00 minutes
	total time  =          0 seconds =       0.00 minutes

*** tstart() called on mac10147
*** at Thu Jun 16 14:12:35 2011

	There are an even number of electrons - assuming singlet.
	Specify the multiplicity with the MULTP option in the
	input if this is incorrect


         ---------------------------------------------------------
                                   SCF
            by Justin Turney, Rob Parrish, and Andy Simmonnett
                              RHF Reference
                        1 Threads,    256 MiB Core
         ---------------------------------------------------------

  ==> Geometry <==

    Molecular point group: c2v

    Geometry (in Angstrom), charge = 0, multiplicity = 1:

       Center              X                  Y                   Z       
    ------------   -----------------  -----------------  -----------------
           O          0.000000000000     0.000000000000    -0.071210224642
           H          0.000000000000     0.758034006923     0.565078970528
           H          0.000000000000    -0.758034006923     0.565078970528

    Number of unique atoms: 2

    Atoms equivalency:
       unique atom 0: 0 
       unique atom 1: 1 2 

  Running in c2v symmetry.

  Nuclear repulsion =    8.904113979417389

  Charge       = 0
  Multiplicity = 1
  Electrons    = 10
  Nalpha       = 5
  Nbeta        = 5

  ==> Algorithm <==

  SCF Algorithm Type is PK.
  DIIS disabled.
  MOM disabled.
  Guess Type is CORE.
  Energy threshold   = 1.00e-10
  Density threshold  = 1.00e-10
  Integral threshold = 0.00e+00

  ==> Primary Basis: STO-3G <==

  Basis Set
    Number of shells: 5
    Number of basis function: 7
    Number of Cartesian functions: 7
    Spherical Harmonics?: true
    Max angular momentum: 1

  ==> Pre-Iterations <==

  Minimum eigenvalue in the overlap matrix is 3.6336294611E-01.
  Using Symmetric Orthogonalization.
  SCF Guess: Core (One-Electron) Hamiltonian.

  Initial RHF energy:   -54.58681017690643

   -------------------------------------------------------
    Irrep   Nso     Nmo     Nalpha   Nbeta   Ndocc  Nsocc
   -------------------------------------------------------
     A1         4       4       3       3       3       0
     A2         0       0       0       0       0       0
     B1         1       1       1       1       1       0
     B2         2       2       1       1       1       0
   -------------------------------------------------------
    Total       7       7       5       5       5       0
   -------------------------------------------------------

  ==> Integral Setup <==

 MINTS: Wrapper to libmints.
   by Justin Turney

   Calculation information:
      Number of atoms:                   3
      Number of AO shells:               5
      Number of SO shells:               4
      Number of primitives:             15
      Number of atomic orbitals:         7
      Number of basis functions:         7

      Number of irreps:                  4
      Number of functions per irrep: [   4    0    1    2 ]

      Computing integrals...done

      Computed 138 non-zero integrals.

  ==> Iterations <==

                        Total Energy        Delta E      Density RMS

   @RHF iter   1:   -73.24103239370459   -1.86542e+01   0.00000e+00 
   @RHF iter   2:   -74.93079014507141   -1.68976e+00   4.01524e-01 
   @RHF iter   3:   -74.96443519629818   -3.36451e-02   5.79644e-02 
   @RHF iter   4:   -74.96573374325381   -1.29855e-03   9.60242e-03 
   @RHF iter   5:   -74.96587160061674   -1.37857e-04   3.65319e-03 
   @RHF iter   6:   -74.96589535599841   -2.37554e-05   1.42174e-03 
   @RHF iter   7:   -74.96589986391832   -4.50792e-06   6.09974e-04 
   @RHF iter   8:   -74.96590074110212   -8.77184e-07   2.64494e-04 
[...]
     A1         4       4       3       3       3       0
     A2         0       0       0       0       0       0
     B1         1       1       1       1       1       0
     B2         2       2       1       1       1       0
   -------------------------------------------------------
    Total       7       7       5       5       5       0
   -------------------------------------------------------

  ==> Integral Setup <==

 MINTS: Wrapper to libmints.
   by Justin Turney

   Calculation information:
      Number of atoms:                   3
      Number of AO shells:               5
      Number of SO shells:               4
      Number of primitives:             15
      Number of atomic orbitals:         7
      Number of basis functions:         7

      Number of irreps:                  4
      Number of functions per irrep: [   4    0    1    2 ]

      Computing integrals...done

      Computed 138 non-zero integrals.

  ==> Iterations <==

                        Total Energy        Delta E      Density RMS

   @RHF iter   1:   -73.24015627413129   -1.86592e+01   0.00000e+00 
   @RHF iter   2:   -74.93147261270792   -1.69132e+00   4.01700e-01 
   @RHF iter   3:   -74.96445950572503   -3.29869e-02   5.74158e-02 
   @RHF iter   4:   -74.96573152431615   -1.27202e-03   9.53250e-03 
   @RHF iter   5:   -74.96586703241027   -1.35508e-04   3.62500e-03 
   @RHF iter   6:   -74.96589033543327   -2.33030e-05   1.41060e-03 
   @RHF iter   7:   -74.96589474554479   -4.41011e-06   6.04162e-04 
   @RHF iter   8:   -74.96589560141227   -8.55867e-07   2.61631e-04 
   @RHF iter   9:   -74.96589576868418   -1.67272e-07   1.14684e-04 
   @RHF iter  10:   -74.96589580144322   -3.27590e-08   5.04938e-05 
   @RHF iter  11:   -74.96589580786276   -6.41954e-09   2.22907e-05 
   @RHF iter  12:   -74.96589580912095   -1.25819e-09   9.85325e-06 
   @RHF iter  13:   -74.96589580936754   -2.46587e-10   4.35861e-06 
   @RHF iter  14:   -74.96589580941583   -4.82885e-11   1.92879e-06 
   @RHF iter  15:   -74.96589580942538   -9.54969e-12   8.53713e-07 
   @RHF iter  16:   -74.96589580942724   -1.86162e-12   3.77910e-07 
   @RHF iter  17:   -74.96589580942755   -3.12639e-13   1.67299e-07 
   @RHF iter  18:   -74.96589580942766   -1.13687e-13   7.40646e-08 
   @RHF iter  19:   -74.96589580942766   0.00000e+00   3.27897e-08 
   @RHF iter  20:   -74.96589580942766   0.00000e+00   1.45167e-08 
   @RHF iter  21:   -74.96589580942769   -2.84217e-14   6.42690e-09 
   @RHF iter  22:   -74.96589580942764   5.68434e-14   2.84535e-09 
   @RHF iter  23:   -74.96589580942762   1.42109e-14   1.25971e-09 
   @RHF iter  24:   -74.96589580942764   -1.42109e-14   5.57708e-10 
   @RHF iter  25:   -74.96589580942771   -7.10543e-14   2.46910e-10 
   @RHF iter  26:   -74.96589580942771   0.00000e+00   1.09315e-10 

  ==> Post-Iterations <==

	Orbital Energies (a.u.)
	-----------------------

	Doubly Occupied:                                                      

	   1A1   -20.251529     2A1    -1.258344     1B2    -0.594345  
	   3A1    -0.460176     1B1    -0.392761  

	Virtual:                                                              

	   4A1     0.583295     2B2     0.693941  

	Final Occupation by Irrep:
	         A1    A2    B1    B2 
	DOCC [     3,    0,    1,    1 ]

  Energy converged.

  @RHF Final Energy:   -74.96589580942771

  ==> Properties <==

 OEPROP: One-electron properties/analyses.
  by Rob Parrish and Justin Turney.
  built on LIBMINTS.

 Dipole Moment: (a.u.)
     X:     0.0000      Y:     0.0000      Z:     0.6735     Total:     0.6735

 Dipole Moment: (Debye)
     X:     0.0000      Y:     0.0000      Z:     1.7119     Total:     1.7119


  Saving occupied orbitals to File 100.

*** tstop() called on mac10147 at Thu Jun 16 14:12:35 2011
	user time   =       0.77 seconds =       0.01 minutes
	system time =       0.14 seconds =       0.00 minutes
	total time  =          0 seconds =       0.00 minutes

*** tstart() called on mac10147
*** at Thu Jun 16 14:12:35 2011

	There are an even number of electrons - assuming singlet.
	Specify the multiplicity with the MULTP option in the
	input if this is incorrect


         ---------------------------------------------------------
                                   SCF
            by Justin Turney, Rob Parrish, and Andy Simmonnett
                              RHF Reference
                        1 Threads,    256 MiB Core
         ---------------------------------------------------------

  ==> Geometry <==

    Molecular point group: c2v

    Geometry (in Angstrom), charge = 0, multiplicity = 1:

       Center              X                  Y                   Z       
    ------------   -----------------  -----------------  -----------------
           O          0.000000000000     0.000000000000    -0.071142172619
           H          0.000000000000     0.760087254232     0.564538953032
           H          0.000000000000    -0.760087254232     0.564538953032

    Number of unique atoms: 2

    Atoms equivalency:
       unique atom 0: 0 
       unique atom 1: 1 2 

  Running in c2v symmetry.

  Nuclear repulsion =    8.892954428678504

  Charge       = 0
  Multiplicity = 1
  Electrons    = 10
  Nalpha       = 5
  Nbeta        = 5

  ==> Algorithm <==

  SCF Algorithm Type is PK.
  DIIS disabled.
  MOM disabled.
  Guess Type is CORE.
  Energy threshold   = 1.00e-10
  Density threshold  = 1.00e-10
  Integral threshold = 0.00e+00

  ==> Primary Basis: STO-3G <==

  Basis Set
    Number of shells: 5
    Number of basis function: 7
    Number of Cartesian functions: 7
    Spherical Harmonics?: true
    Max angular momentum: 1

  ==> Pre-Iterations <==

  Minimum eigenvalue in the overlap matrix is 3.6413319040E-01.
  Using Symmetric Orthogonalization.
  SCF Guess: Core (One-Electron) Hamiltonian.

  Initial RHF energy:   -54.59140672191185

   -------------------------------------------------------
    Irrep   Nso     Nmo     Nalpha   Nbeta   Ndocc  Nsocc
   -------------------------------------------------------
     A1         4       4       3       3       3       0
     A2         0       0       0       0       0       0
     B1         1       1       1       1       1       0
     B2         2       2       1       1       1       0
   -------------------------------------------------------
    Total       7       7       5       5       5       0
   -------------------------------------------------------

  ==> Integral Setup <==

 MINTS: Wrapper to libmints.
   by Justin Turney

   Calculation information:
      Number of atoms:                   3
      Number of AO shells:               5
      Number of SO shells:               4
      Number of primitives:             15
      Number of atomic orbitals:         7
      Number of basis functions:         7

      Number of irreps:                  4
      Number of functions per irrep: [   4    0    1    2 ]

      Computing integrals...done

      Computed 138 non-zero integrals.

  ==> Iterations <==

                        Total Energy        Delta E      Density RMS

   @RHF iter   1:   -73.24191592168823   -1.86505e+01   0.00000e+00 
   @RHF iter   2:   -74.93054031586753   -1.68862e+00   4.01320e-01 
   @RHF iter   3:   -74.96441428453599   -3.38740e-02   5.81331e-02 
   @RHF iter   4:   -74.96572536835369   -1.31108e-03   9.63749e-03 
   @RHF iter   5:   -74.96586491247010   -1.39544e-04   3.67290e-03 
   @RHF iter   6:   -74.96588902546432   -2.41130e-05   1.43116e-03 
   @RHF iter   7:   -74.96589361145294   -4.58599e-06   6.14846e-04 
   @RHF iter   8:   -74.96589450558956   -8.94137e-07   2.66892e-04 
   @RHF iter   9:   -74.96589468112843   -1.75539e-07   1.17270e-04 
   @RHF iter  10:   -74.96589471565984   -3.45314e-08   5.17507e-05 
   @RHF iter  11:   -74.96589472245671   -6.79687e-09   2.28973e-05 
   @RHF iter  12:   -74.96589472379480   -1.33809e-09   1.01440e-05 
   @RHF iter  13:   -74.96589472405824   -2.63441e-10   4.49725e-06 
   @RHF iter  14:   -74.96589472411010   -5.18554e-11   1.99457e-06 
   @RHF iter  15:   -74.96589472412029   -1.01892e-11   8.84787e-07 
   @RHF iter  16:   -74.96589472412234   -2.04636e-12   3.92534e-07 
   @RHF iter  17:   -74.96589472412268   -3.41061e-13   1.74158e-07 
   @RHF iter  18:   -74.96589472412275   -7.10543e-14   7.72721e-08 
   @RHF iter  19:   -74.96589472412278   -2.84217e-14   3.42855e-08 
   @RHF iter  20:   -74.96589472412276   1.42109e-14   1.52126e-08 
   @RHF iter  21:   -74.96589472412275   1.42109e-14   6.74990e-09 
   @RHF iter  22:   -74.96589472412282   -7.10543e-14   2.99497e-09 
   @RHF iter  23:   -74.96589472412285   -2.84217e-14   1.32889e-09 
   @RHF iter  24:   -74.96589472412279   5.68434e-14   5.89639e-10 
   @RHF iter  25:   -74.96589472412279   0.00000e+00   2.61628e-10 
   @RHF iter  26:   -74.96589472412279   0.00000e+00   1.16086e-10 

  ==> Post-Iterations <==

	Orbital Energies (a.u.)
	-----------------------

	Doubly Occupied:                                                      

	   1A1   -20.251583     2A1    -1.256682     1B2    -0.593406  
	   3A1    -0.459177     1B1    -0.392443  

	Virtual:                                                              

	   4A1     0.580168     2B2     0.691450  

	Final Occupation by Irrep:
	         A1    A2    B1    B2 
	DOCC [     3,    0,    1,    1 ]

  Energy converged.

  @RHF Final Energy:   -74.96589472412279

  ==> Properties <==

 OEPROP: One-electron properties/analyses.
  by Rob Parrish and Justin Turney.
  built on LIBMINTS.

 Dipole Moment: (a.u.)
     X:     0.0000      Y:     0.0000      Z:     0.6713     Total:     0.6713

 Dipole Moment: (Debye)
     X:     0.0000      Y:     0.0000      Z:     1.7062     Total:     1.7062


  Saving occupied orbitals to File 100.

*** tstop() called on mac10147 at Thu Jun 16 14:12:35 2011
	user time   =       0.81 seconds =       0.01 minutes
	system time =       0.14 seconds =       0.00 minutes
	total time  =          0 seconds =       0.00 minutes

*** tstart() called on mac10147
*** at Thu Jun 16 14:12:35 2011

	There are an even number of electrons - assuming singlet.
	Specify the multiplicity with the MULTP option in the
	input if this is incorrect


         ---------------------------------------------------------
                                   SCF
            by Justin Turney, Rob Parrish, and Andy Simmonnett
                              RHF Reference
                        1 Threads,    256 MiB Core
         ---------------------------------------------------------

  ==> Geometry <==

    Molecular point group: c2v

    Geometry (in Angstrom), charge = 0, multiplicity = 1:

       Center              X                  Y                   Z       
    ------------   -----------------  -----------------  -----------------
           O          0.000000000000     0.000000000000    -0.071142172619
           H          0.000000000000     0.758223607465     0.564538953032
           H          0.000000000000    -0.758223607465     0.564538953032

    Number of unique atoms: 2

    Atoms equivalency:
       unique atom 0: 0 
       unique atom 1: 1 2 

  Running in c2v symmetry.

  Nuclear repulsion =    8.906149761356223

  Charge       = 0
  Multiplicity = 1
  Electrons    = 10
  Nalpha       = 5
  Nbeta        = 5

  ==> Algorithm <==

  SCF Algorithm Type is PK.
  DIIS disabled.
  MOM disabled.
  Guess Type is CORE.
  Energy threshold   = 1.00e-10
  Density threshold  = 1.00e-10
  Integral threshold = 0.00e+00

  ==> Primary Basis: STO-3G <==

  Basis Set
    Number of shells: 5
    Number of basis function: 7
    Number of Cartesian functions: 7
    Spherical Harmonics?: true
    Max angular momentum: 1

  ==> Pre-Iterations <==

  Minimum eigenvalue in the overlap matrix is 3.6320039956E-01.
  Using Symmetric Orthogonalization.
  SCF Guess: Core (One-Electron) Hamiltonian.

  Initial RHF energy:   -54.58621400661814

   -------------------------------------------------------
    Irrep   Nso     Nmo     Nalpha   Nbeta   Ndocc  Nsocc
   -------------------------------------------------------
     A1         4       4       3       3       3       0
     A2         0       0       0       0       0       0
     B1         1       1       1       1       1       0
     B2         2       2       1       1       1       0
   -------------------------------------------------------
    Total       7       7       5       5       5       0
   -------------------------------------------------------

  ==> Integral Setup <==

 MINTS: Wrapper to libmints.
   by Justin Turney

   Calculation information:
      Number of atoms:                   3
      Number of AO shells:               5
      Number of SO shells:               4
      Number of primitives:             15
      Number of atomic orbitals:         7
      Number of basis functions:         7

      Number of irreps:                  4
      Number of functions per irrep: [   4    0    1    2 ]

      Computing integrals...done

      Computed 138 non-zero integrals.

  ==> Iterations <==

                        Total Energy        Delta E      Density RMS

   @RHF iter   1:   -73.24103853043448   -1.86548e+01   0.00000e+00 
   @RHF iter   2:   -74.93101613121287   -1.68998e+00   4.01508e-01 
   @RHF iter   3:   -74.96444304483418   -3.34269e-02   5.77724e-02 
   @RHF iter   4:   -74.96573437329641   -1.29133e-03   9.58454e-03 
   @RHF iter   5:   -74.96587187897562   -1.37506e-04   3.64878e-03 
   @RHF iter   6:   -74.96589558271887   -2.37037e-05   1.42082e-03 
   @RHF iter   7:   -74.96590007975243   -4.49703e-06   6.09469e-04 
   @RHF iter   8:   -74.96590095451261   -8.74760e-07   2.64244e-04 
   @RHF iter   9:   -74.96590112586136   -1.71349e-07   1.15968e-04 
   @RHF iter  10:   -74.96590115949351   -3.36321e-08   5.11173e-05 
   @RHF iter  11:   -74.96590116609869   -6.60518e-09   2.25914e-05 
   @RHF iter  12:   -74.96590116739615   -1.29747e-09   9.99734e-06 
   @RHF iter  13:   -74.96590116765100   -2.54843e-10   4.42728e-06 
   @RHF iter  14:   -74.96590116770111   -5.01075e-11   1.96135e-06 
   @RHF iter  15:   -74.96590116771090   -9.79128e-12   8.69086e-07 
   @RHF iter  16:   -74.96590116771286   -1.96110e-12   3.85141e-07 
   @RHF iter  17:   -74.96590116771320   -3.41061e-13   1.70688e-07 
   @RHF iter  18:   -74.96590116771326   -5.68434e-14   7.56489e-08 
   @RHF iter  19:   -74.96590116771328   -2.84217e-14   3.35281e-08 
   @RHF iter  20:   -74.96590116771333   -4.26326e-14   1.48600e-08 
   @RHF iter  21:   -74.96590116771335   -2.84217e-14   6.58618e-09 
   @RHF iter  22:   -74.96590116771331   4.26326e-14   2.91909e-09 
   @RHF iter  23:   -74.96590116771331   0.00000e+00   1.29379e-09 
   @RHF iter  24:   -74.96590116771331   0.00000e+00   5.73428e-10 
   @RHF iter  25:   -74.96590116771331   0.00000e+00   2.54153e-10 
   @RHF iter  26:   -74.96590116771333   -1.42109e-14   1.12643e-10 

  ==> Post-Iterations <==

	Orbital Energies (a.u.)
	-----------------------

	Doubly Occupied:                                                      

	   1A1   -20.251556     2A1    -1.257511     1B2    -0.593877  
	   3A1    -0.459676     1B1    -0.392601  

	Virtual:                                                              

	   4A1     0.581732     2B2     0.692695  

	Final Occupation by Irrep:
	         A1    A2    B1    B2 
	DOCC [     3,    0,    1,    1 ]

  Energy converged.

  @RHF Final Energy:   -74.96590116771333

  ==> Properties <==

 OEPROP: One-electron properties/analyses.
  by Rob Parrish and Justin Turney.
  built on LIBMINTS.

 Dipole Moment: (a.u.)
     X:     0.0000      Y:     0.0000      Z:     0.6724     Total:     0.6724

 Dipole Moment: (Debye)
     X:     0.0000      Y:     0.0000      Z:     1.7090     Total:     1.7090


  Saving occupied orbitals to File 100.

*** tstop() called on mac10147 at Thu Jun 16 14:12:35 2011
	user time   =       0.85 seconds =       0.01 minutes
	system time =       0.15 seconds =       0.00 minutes
	total time  =          0 seconds =       0.00 minutes
	Finite difference computation of gradient using 3-point formula
	Check for precision!
	Energy without displacment:  -74.9659011677
	Gradients are in mass-weighted, symmetry-adapted cartesians (in au).
 Coord      Energy(-)        Energy(+)        Force
    0    -74.9658968459   -74.9658966256     0.0000220329
    1    -74.9658958094   -74.9658947241     0.0001085305


			----------------------------------
			 OPTKING: for geometry optimizations  
			  - R.A. King,  Bethel University   
			------------------------------------

	Prevous internal coordinate definitions found.
	---Fragment 1 Geometry and Gradient---
	 O           0.0000000000        0.0000000000       -0.1344392125
	 H           0.0000000000        1.4328348562        1.0668239311
	 H           0.0000000000       -1.4328348562        1.0668239311
	             0.0000000000        0.0000000000        0.0000294785
	             0.0000000000        0.0000770423       -0.0000147393
	             0.0000000000       -0.0000770423       -0.0000147393

	---Fragment 1 Intrafragment Coordinates---
	 * Coordinate *           * BOHR/RAD *       * ANG/DEG *
	 R(1,2)           =         1.869772	       0.989441
	 R(1,3)           =         1.869772	       0.989441
	 B(2,1,3)         =         1.746172	     100.048265

	Current energy   :       -74.9659011677

	Energy change for the previous step:
		Projected    :        -0.0000067716
		Actual       :        -0.0000066809
	Energy ratio large: Trust radius increased.


	Performing BFGS update with previous 3 gradient(s).
	Following RFO solution 0.
	Projected energy change by RFO approximation:        -0.0000000236

	Back-transformation to cartesian coordinates...
	Successfully converged to displaced geometry.

	---Internal Coordinate Step in ANG or DEG, aJ/ANG or AJ/DEG ---
	 ----------------------------------------------------------------------
	 Coordinate             Previous        Force       Change         New 
	 ----------             --------       ------       ------       ------
	 R(1,2)          =      0.989441    -0.000408    -0.000030     0.989411
	 R(1,3)          =      0.989441    -0.000408    -0.000030     0.989411
	 B(2,1,3)        =    100.048265    -0.000009    -0.020949   100.027316
	 ----------------------------------------------------------------------

	Convergence Check Cycle    4: (using internal coordinates in au)
	                    Actual        Tolerance     Converged?
	----------------------------------------------------------
	MAX Force           1.1e-04        3.0e-04         yes
	Energy Change      -6.7e-06        1.0e-06          no
	MAX Displacement    3.7e-04        1.2e-03         yes
	----------------------------------------------------------

	 **** Optimization is complete! ****

	            ****  Optimization Summary  ****
	----------------------------------------------------------------------------
	 Step         Energy             Delta(E)      MAX force    MAX Delta(q)  
	----------------------------------------------------------------------------
	   1    -74.964662543200    -74.964662543200    2.37e-02     2.37e-02
	   2    -74.965450891500     -0.000788348300    1.69e-02     1.69e-02
	   3    -74.965894486800     -0.000443595300    1.67e-03     1.67e-03
	   4    -74.965901167700     -0.000006680900    1.14e-04     1.14e-04
	----------------------------------------------------------------------

	Writing optimization data to binary file.
	Final energy is    -74.9659011677000
	Final (previous) structure:
	Cartesian Geometry (au)
	    O     0.0000000000   0.0000000000  -0.1344392125
	    H     0.0000000000   1.4328348562   1.0668239311
	    H     0.0000000000  -1.4328348562   1.0668239311
	Saving final (previous) structure.
			--------------------------
			 OPTKING Finished Execution 
			--------------------------

*** PSI4 exiting successfully, buy a developer a beer!
